Siesta Version:                                        siesta-3.1
Architecture  : x86_64-unknown-linux-gnu--unknown
Compiler flags: mpif90 -g -O2
PARALLEL version

* Running on    4 nodes in parallel
>> Start of run:  11-NOV-2019  16:05:01

                           ***********************       
                           *  WELCOME TO SIESTA  *       
                           ***********************       

reinit: Reading from standard input
************************** Dump of input data file ****************************
SystemName TiS3
SystemLabel TiS3
NumberOfAtoms 72
SpinPolarized .true.
NumberOfSpecies 3
%block ChemicalSpeciesLabel
1  22 Ti
2  16 S
3  6 C
%endblock ChemicalSpeciesLabel
XC.functional		GGA
XC.authors		PBE
PAO.BasisSize		DZP
PAO.EnergyShift		65 meV
LatticeConstant 1.0 Ang
%block LatticeParameters
4.94760 16.89350 25.00000 90.00000 90.00000 90.00000
%endblock LatticeParameters
AtomicCoordinatesFormat  Fractional
%block AtomicCoordinatesAndAtomicSpecies
0.32844800	0.05000000	0.10474200	1
0.32844800	0.25000000	0.10474200	1
0.32844800	0.45000000	0.10474200	1
0.32844800	0.65000000	0.10474200	1
0.32844800	0.85000000	0.10474200	1
0.82482600	0.15000000	0.00000000	1
0.82482600	0.35000000	0.00000000	1
0.82482600	0.55000000	0.00000000	1
0.82482600	0.75000000	0.00000000	1
0.82482600	0.95000000	0.00000000	1
0.61387700	0.05000000	0.94013700	2
0.61387700	0.25000000	0.94013700	2
0.61387700	0.45000000	0.94013700	2
0.61387700	0.65000000	0.94013700	2
0.61387700	0.85000000	0.94013700	2
0.53939700	0.15000000	0.16460500	2
0.53939700	0.35000000	0.16460500	2
0.53939700	0.55000000	0.16460500	2
0.53939700	0.75000000	0.16460500	2
0.53939700	0.95000000	0.16460500	2
0.82469000	0.05000000	0.07019800	2
0.82469000	0.25000000	0.07019800	2
0.82469000	0.45000000	0.07019800	2
0.82469000	0.65000000	0.07019800	2
0.82469000	0.85000000	0.07019800	2
0.32858300	0.15000000	0.03454400	2
0.32858300	0.35000000	0.03454400	2
0.32858300	0.55000000	0.03454400	2
0.32858300	0.75000000	0.03454400	2
0.32858300	0.95000000	0.03454400	2
0.04157400	0.05000000	0.93895800	2
0.04157400	0.25000000	0.93895800	2
0.04157400	0.45000000	0.93895800	2
0.04157400	0.65000000	0.93895800	2
0.04157400	0.85000000	0.93895800	2
0.11170000	0.15000000	0.16578400	2
0.11170000	0.35000000	0.16578400	2
0.11170000	0.55000000	0.16578400	2
0.11170000	0.75000000	0.16578400	2
0.11170000	0.95000000	0.16578400	2
0.37500000	0.20835500	0.29284560	3
0.37500000	0.45835500	0.29284560	3
0.37500000	0.70835500	0.29284560	3
0.37500000	0.95835500	0.29284560	3
0.87500000	0.20835500	0.29284560	3
0.87500000	0.45835500	0.29284560	3
0.87500000	0.70835500	0.29284560	3
0.87500000	0.95835500	0.29284560	3
0.37500000	0.04164500	0.29284560	3
0.37500000	0.29164500	0.29284560	3
0.37500000	0.54164500	0.29284560	3
0.37500000	0.79164500	0.29284560	3
0.87500000	0.04164500	0.29284560	3
0.87500000	0.29164500	0.29284560	3
0.87500000	0.54164500	0.29284560	3
0.87500000	0.79164500	0.29284560	3
0.12500000	0.08335500	0.29284560	3
0.12500000	0.33335500	0.29284560	3
0.12500000	0.58335500	0.29284560	3
0.12500000	0.83335500	0.29284560	3
0.62500000	0.08335500	0.29284560	3
0.62500000	0.33335500	0.29284560	3
0.62500000	0.58335500	0.29284560	3
0.62500000	0.83335500	0.29284560	3
0.12500000	0.16664500	0.29284560	3
0.12500000	0.41664500	0.29284560	3
0.12500000	0.66664500	0.29284560	3
0.12500000	0.91664500	0.29284560	3
0.62500000	0.16664500	0.29284560	3
0.62500000	0.41664500	0.29284560	3
0.62500000	0.66664500	0.29284560	3
0.62500000	0.91664500	0.29284560	3
%endblock AtomicCoordinatesAndAtomicSpecies
DM.MixingWeight		0.05
DM.NumberPulay		8
DM.Tolerance		1.d-4
MaxSCFIterations		300
MD.TypeOfRun		CG
MD.VariableCell		.false.
MD.MaxForceTol		0.01 eV/Ang
MD.NumCGsteps		1000
#MD.MaxCGDispl		0.15 Ang
#%block GeometryConstraints
# stress 3 4 5
# position  7 0.0  0.0  1.0
#%endblock GeometryConstraints
MeshCutoff		300.0 Ry
WriteCoorXmol		yes
%block kgrid_Monkhorst_Pack
   6   0   0  0.0
   0   2   0  0.0
   0   0   1  0.0
%endblock Kgrid_Monkhorst_Pack
UseSaveData           .true.
SaveRho                 .true.       # Write valence pseudocharge at the mesh
************************** End of input data file *****************************

reinit: -----------------------------------------------------------------------
reinit: System Name: TiS3
reinit: -----------------------------------------------------------------------
reinit: System Label: TiS3                                                        
reinit: -----------------------------------------------------------------------

initatom: Reading input for the pseudopotentials and atomic orbitals ----------
 Species number:            1  Label: Ti Atomic number:          22
 Species number:            2  Label: S Atomic number:          16
 Species number:            3  Label: C Atomic number:           6
Ground state valence configuration:   4s02  3d02
Reading pseudopotential information in formatted form from Ti.psf

Valence configuration for pseudopotential generation:
4s( 2.00) rc: 2.71
4p( 0.00) rc: 2.71
3d( 2.00) rc: 2.45
4f( 0.00) rc: 2.45
Ground state valence configuration:   3s02  3p04
Reading pseudopotential information in formatted form from S.psf

Valence configuration for pseudopotential generation:
3s( 2.00) rc: 1.61
3p( 4.00) rc: 1.76
3d( 0.00) rc: 1.92
4f( 0.00) rc: 1.92
Ground state valence configuration:   2s02  2p02
Reading pseudopotential information in formatted form from C.psf

Valence configuration for pseudopotential generation:
2s( 2.00) rc: 1.54
2p( 2.00) rc: 1.54
3d( 0.00) rc: 1.54
4f( 0.00) rc: 1.54
For Ti, standard SIESTA heuristics set lmxkb to 3
 (one more than the basis l, including polarization orbitals).
Use PS.lmax or PS.KBprojectors blocks to override.
For S, standard SIESTA heuristics set lmxkb to 3
 (one more than the basis l, including polarization orbitals).
Use PS.lmax or PS.KBprojectors blocks to override.
For C, standard SIESTA heuristics set lmxkb to 3
 (one more than the basis l, including polarization orbitals).
Use PS.lmax or PS.KBprojectors blocks to override.

<basis_specs>
===============================================================================
Ti                   Z=  22    Mass=  47.880        Charge= 0.17977+309
Lmxo=2 Lmxkb= 3    BasisType=split      Semic=F
L=0  Nsemic=0  Cnfigmx=4
          n=1  nzeta=2  polorb=1
            splnorm:   0.15000    
               vcte:    0.0000    
               rinn:    0.0000    
                rcs:    0.0000      0.0000    
            lambdas:    1.0000      1.0000    
L=1  Nsemic=0  Cnfigmx=4
L=2  Nsemic=0  Cnfigmx=3
          n=1  nzeta=2  polorb=0
            splnorm:   0.15000    
               vcte:    0.0000    
               rinn:    0.0000    
                rcs:    0.0000      0.0000    
            lambdas:    1.0000      1.0000    
-------------------------------------------------------------------------------
L=0  Nkbl=1  erefs: 0.17977+309
L=1  Nkbl=1  erefs: 0.17977+309
L=2  Nkbl=1  erefs: 0.17977+309
L=3  Nkbl=1  erefs: 0.17977+309
===============================================================================
</basis_specs>

atom: Called for Ti                    (Z =  22)

read_vps: Pseudopotential generation method:
read_vps: ATM3      Troullier-Martins                       
Total valence charge:    4.00000

read_vps: Pseudopotential includes a core correction:
read_vps: Pseudo-core for xc-correction

xc_check: Exchange-correlation functional:
xc_check: GGA Perdew, Burke & Ernzerhof 1996
V l=0 = -2*Zval/r beyond r=  3.2266
V l=1 = -2*Zval/r beyond r=  3.2266
V l=2 = -2*Zval/r beyond r=  3.2266
V l=3 = -2*Zval/r beyond r=  3.2266
All V_l potentials equal beyond r=  2.6749
This should be close to max(r_c) in ps generation
All pots = -2*Zval/r beyond r=  3.2266

VLOCAL1: 99.0% of the norm of Vloc inside      6.067 Ry
VLOCAL1: 99.9% of the norm of Vloc inside     13.826 Ry
atom: Maximum radius for 4*pi*r*r*local-pseudopot. charge    3.18650
atom: Maximum radius for r*vlocal+2*Zval:    2.77713
GHOST: No ghost state for L =  0
GHOST: No ghost state for L =  1
GHOST: No ghost state for L =  2
GHOST: No ghost state for L =  3

KBgen: Kleinman-Bylander projectors: 
   l= 0   rc=  3.656209   el= -0.325100   Ekb=  2.704161   kbcos=  0.283955
   l= 1   rc=  3.748769   el= -0.108822   Ekb=  1.406241   kbcos=  0.273406
   l= 2   rc=  3.267166   el= -0.324546   Ekb= -7.701284   kbcos= -0.636873
   l= 3   rc=  3.990551   el=  0.003060   Ekb= -1.295170   kbcos= -0.013833

KBgen: Total number of  Kleinman-Bylander projectors:   16
atom: -------------------------------------------------------------------------

atom: SANKEY-TYPE ORBITALS:
atom: Selected multiple-zeta basis: split     

SPLIT: Orbitals with angular momentum L= 0

SPLIT: Basis orbitals for state 4s

SPLIT: PAO cut-off radius determined from an
SPLIT: energy shift=  0.004777 Ry

   izeta = 1
                 lambda =    1.000000
                     rc =    8.448122
                 energy =   -0.320243
                kinetic =    0.225933
    potential(screened) =   -0.546176
       potential(ionic) =   -2.398113

   izeta = 2
                 rmatch =    7.181023
              splitnorm =    0.150000
                 energy =   -0.277986
                kinetic =    0.361117
    potential(screened) =   -0.639103
       potential(ionic) =   -2.603312

SPLIT: Orbitals with angular momentum L= 2

SPLIT: Basis orbitals for state 3d

SPLIT: PAO cut-off radius determined from an
SPLIT: energy shift=  0.004777 Ry

   izeta = 1
                 lambda =    1.000000
                     rc =    5.806269
                 energy =   -0.319832
                kinetic =    5.305924
    potential(screened) =   -5.625757
       potential(ionic) =   -8.134583

   izeta = 2
                 rmatch =    3.107819
              splitnorm =    0.150000
                 energy =   -0.130887
                kinetic =    7.291131
    potential(screened) =   -7.422018
       potential(ionic) =  -10.057457

POLgen: Perturbative polarization orbital with L=  1

POLgen: Polarization orbital for state 4s

   izeta = 1
                     rc =    8.448122
                 energy =   -0.098258
                kinetic =    0.420436
    potential(screened) =   -0.518694
       potential(ionic) =   -2.271734
atom: Total number of Sankey-type orbitals: 15

atm_pop: Valence configuration (for local Pseudopot. screening):
 4s( 2.00)                                                            
 4p( 0.00)                                                            
 3d( 2.00)                                                            
Vna: chval, zval:    4.00000   4.00000

Vna:  Cut-off radius for the neutral-atom potential:   8.448122
comcore: Pseudo-core radius Rcore=  4.578782

atom: _________________________________________________________________________

<basis_specs>
===============================================================================
S                    Z=  16    Mass=  32.070        Charge= 0.17977+309
Lmxo=1 Lmxkb= 3    BasisType=split      Semic=F
L=0  Nsemic=0  Cnfigmx=3
          n=1  nzeta=2  polorb=0
            splnorm:   0.15000    
               vcte:    0.0000    
               rinn:    0.0000    
                rcs:    0.0000      0.0000    
            lambdas:    1.0000      1.0000    
L=1  Nsemic=0  Cnfigmx=3
          n=1  nzeta=2  polorb=1
            splnorm:   0.15000    
               vcte:    0.0000    
               rinn:    0.0000    
                rcs:    0.0000      0.0000    
            lambdas:    1.0000      1.0000    
-------------------------------------------------------------------------------
L=0  Nkbl=1  erefs: 0.17977+309
L=1  Nkbl=1  erefs: 0.17977+309
L=2  Nkbl=1  erefs: 0.17977+309
L=3  Nkbl=1  erefs: 0.17977+309
===============================================================================
</basis_specs>

atom: Called for S                     (Z =  16)

read_vps: Pseudopotential generation method:
read_vps: ATM3      Troullier-Martins                       
Total valence charge:    6.00000

read_vps: Pseudopotential includes a core correction:
read_vps: Pseudo-core for xc-correction

xc_check: Exchange-correlation functional:
xc_check: GGA Perdew, Burke & Ernzerhof 1996
V l=0 = -2*Zval/r beyond r=  1.7157
V l=1 = -2*Zval/r beyond r=  1.7813
V l=2 = -2*Zval/r beyond r=  1.8962
V l=3 = -2*Zval/r beyond r=  1.8962
All V_l potentials equal beyond r=  1.8962
This should be close to max(r_c) in ps generation
All pots = -2*Zval/r beyond r=  1.8962

VLOCAL1: 99.0% of the norm of Vloc inside     12.073 Ry
VLOCAL1: 99.9% of the norm of Vloc inside     27.515 Ry
atom: Maximum radius for 4*pi*r*r*local-pseudopot. charge    2.28723
atom: Maximum radius for r*vlocal+2*Zval:    1.99338
GHOST: No ghost state for L =  0
GHOST: No ghost state for L =  1
GHOST: No ghost state for L =  2
GHOST: No ghost state for L =  3

KBgen: Kleinman-Bylander projectors: 
   l= 0   rc=  2.095595   el= -1.260012   Ekb=  7.575815   kbcos=  0.308447
   l= 1   rc=  2.148649   el= -0.516050   Ekb=  2.724996   kbcos=  0.294943
   l= 2   rc=  2.175677   el=  0.001998   Ekb= -2.719245   kbcos= -0.053867
   l= 3   rc=  2.345140   el=  0.003105   Ekb= -0.697074   kbcos= -0.004230

KBgen: Total number of  Kleinman-Bylander projectors:   16
atom: -------------------------------------------------------------------------

atom: SANKEY-TYPE ORBITALS:
atom: Selected multiple-zeta basis: split     

SPLIT: Orbitals with angular momentum L= 0

SPLIT: Basis orbitals for state 3s

SPLIT: PAO cut-off radius determined from an
SPLIT: energy shift=  0.004777 Ry

   izeta = 1
                 lambda =    1.000000
                     rc =    4.842249
                 energy =   -1.255602
                kinetic =    0.842930
    potential(screened) =   -2.098533
       potential(ionic) =   -7.019684

   izeta = 2
                 rmatch =    3.542623
              splitnorm =    0.150000
                 energy =   -1.124633
                kinetic =    1.297137
    potential(screened) =   -2.421770
       potential(ionic) =   -7.574141

SPLIT: Orbitals with angular momentum L= 1

SPLIT: Basis orbitals for state 3p

SPLIT: PAO cut-off radius determined from an
SPLIT: energy shift=  0.004777 Ry

   izeta = 1
                 lambda =    1.000000
                     rc =    6.064098
                 energy =   -0.511517
                kinetic =    1.429029
    potential(screened) =   -1.940546
       potential(ionic) =   -6.510685

   izeta = 2
                 rmatch =    3.964470
              splitnorm =    0.150000
                 energy =   -0.369917
                kinetic =    2.112725
    potential(screened) =   -2.482643
       potential(ionic) =   -7.463487

POLgen: Perturbative polarization orbital with L=  2

POLgen: Polarization orbital for state 3p

   izeta = 1
                     rc =    6.064098
                 energy =    0.629859
                kinetic =    1.964668
    potential(screened) =   -1.334809
       potential(ionic) =   -5.430423
atom: Total number of Sankey-type orbitals: 13

atm_pop: Valence configuration (for local Pseudopot. screening):
 3s( 2.00)                                                            
 3p( 4.00)                                                            
Vna: chval, zval:    6.00000   6.00000

Vna:  Cut-off radius for the neutral-atom potential:   6.064098
comcore: Pseudo-core radius Rcore=  2.496399

atom: _________________________________________________________________________

<basis_specs>
===============================================================================
C                    Z=   6    Mass=  12.010        Charge= 0.17977+309
Lmxo=1 Lmxkb= 3    BasisType=split      Semic=F
L=0  Nsemic=0  Cnfigmx=2
          n=1  nzeta=2  polorb=0
            splnorm:   0.15000    
               vcte:    0.0000    
               rinn:    0.0000    
                rcs:    0.0000      0.0000    
            lambdas:    1.0000      1.0000    
L=1  Nsemic=0  Cnfigmx=2
          n=1  nzeta=2  polorb=1
            splnorm:   0.15000    
               vcte:    0.0000    
               rinn:    0.0000    
                rcs:    0.0000      0.0000    
            lambdas:    1.0000      1.0000    
-------------------------------------------------------------------------------
L=0  Nkbl=1  erefs: 0.17977+309
L=1  Nkbl=1  erefs: 0.17977+309
L=2  Nkbl=1  erefs: 0.17977+309
L=3  Nkbl=1  erefs: 0.17977+309
===============================================================================
</basis_specs>

atom: Called for C                     (Z =   6)

read_vps: Pseudopotential generation method:
read_vps: ATM3      Troullier-Martins                       
Total valence charge:    4.00000

read_vps: Pseudopotential includes a core correction:
read_vps: Pseudo-core for xc-correction

xc_check: Exchange-correlation functional:
xc_check: GGA Perdew, Burke & Ernzerhof 1996
V l=0 = -2*Zval/r beyond r=  1.5227
V l=1 = -2*Zval/r beyond r=  1.5227
V l=2 = -2*Zval/r beyond r=  1.5227
V l=3 = -2*Zval/r beyond r=  1.5038
All V_l potentials equal beyond r=  1.5227
This should be close to max(r_c) in ps generation
All pots = -2*Zval/r beyond r=  1.5227

VLOCAL1: 99.0% of the norm of Vloc inside     18.722 Ry
VLOCAL1: 99.9% of the norm of Vloc inside     42.668 Ry
atom: Maximum radius for 4*pi*r*r*local-pseudopot. charge    1.83678
atom: Maximum radius for r*vlocal+2*Zval:    1.58088
GHOST: No ghost state for L =  0
GHOST: No ghost state for L =  1
GHOST: No ghost state for L =  2
GHOST: No ghost state for L =  3

KBgen: Kleinman-Bylander projectors: 
   l= 0   rc=  1.704034   el= -1.009801   Ekb=  5.335044   kbcos=  0.316824
   l= 1   rc=  1.704034   el= -0.388707   Ekb= -3.785862   kbcos= -0.366464
   l= 2   rc=  1.791422   el=  0.001971   Ekb= -0.970471   kbcos= -0.009212
   l= 3   rc=  1.859892   el=  0.003065   Ekb= -0.399525   kbcos= -0.001223

KBgen: Total number of  Kleinman-Bylander projectors:   16
atom: -------------------------------------------------------------------------

atom: SANKEY-TYPE ORBITALS:
atom: Selected multiple-zeta basis: split     

SPLIT: Orbitals with angular momentum L= 0

SPLIT: Basis orbitals for state 2s

SPLIT: PAO cut-off radius determined from an
SPLIT: energy shift=  0.004777 Ry

   izeta = 1
                 lambda =    1.000000
                     rc =    4.870301
                 energy =   -1.004978
                kinetic =    0.843912
    potential(screened) =   -1.848890
       potential(ionic) =   -5.399930

   izeta = 2
                 rmatch =    3.475094
              splitnorm =    0.150000
                 energy =   -0.867524
                kinetic =    1.299872
    potential(screened) =   -2.167396
       potential(ionic) =   -5.961732

SPLIT: Orbitals with angular momentum L= 1

SPLIT: Basis orbitals for state 2p

SPLIT: PAO cut-off radius determined from an
SPLIT: energy shift=  0.004777 Ry

   izeta = 1
                 lambda =    1.000000
                     rc =    6.099293
                 energy =   -0.384291
                kinetic =    2.361393
    potential(screened) =   -2.745684
       potential(ionic) =   -6.151019

   izeta = 2
                 rmatch =    3.699245
              splitnorm =    0.150000
                 energy =   -0.263576
                kinetic =    3.460758
    potential(screened) =   -3.724335
       potential(ionic) =   -7.494953

POLgen: Perturbative polarization orbital with L=  2

POLgen: Polarization orbital for state 2p

   izeta = 1
                     rc =    6.099293
                 energy =    1.042694
                kinetic =    2.181445
    potential(screened) =   -1.138752
       potential(ionic) =   -3.900921
atom: Total number of Sankey-type orbitals: 13

atm_pop: Valence configuration (for local Pseudopot. screening):
 2s( 2.00)                                                            
 2p( 2.00)                                                            
Vna: chval, zval:    4.00000   4.00000

Vna:  Cut-off radius for the neutral-atom potential:   6.099293
comcore: Pseudo-core radius Rcore=  1.791422

atom: _________________________________________________________________________

prinput: Basis input ----------------------------------------------------------

PAO.BasisType split     

%block ChemicalSpeciesLabel
    1   22 Ti                      # Species index, atomic number, species label
    2   16 S                       # Species index, atomic number, species label
    3    6 C                       # Species index, atomic number, species label
%endblock ChemicalSpeciesLabel

%block PAO.Basis                 # Define Basis set
Ti                    2                    # Species label, number of l-shells
 n=4   0   2 P   1                   # n, l, Nzeta, Polarization, NzetaPol
   8.448      7.181   
   1.000      1.000   
 n=3   2   2                         # n, l, Nzeta 
   5.806      3.108   
   1.000      1.000   
S                     2                    # Species label, number of l-shells
 n=3   0   2                         # n, l, Nzeta 
   4.842      3.543   
   1.000      1.000   
 n=3   1   2 P   1                   # n, l, Nzeta, Polarization, NzetaPol
   6.064      3.964   
   1.000      1.000   
C                     2                    # Species label, number of l-shells
 n=2   0   2                         # n, l, Nzeta 
   4.870      3.475   
   1.000      1.000   
 n=2   1   2 P   1                   # n, l, Nzeta, Polarization, NzetaPol
   6.099      3.699   
   1.000      1.000   
%endblock PAO.Basis

prinput: ----------------------------------------------------------------------

coor:   Atomic-coordinates input format  =     Fractional

siesta: WARNING: XV file not found

siesta: Atomic coordinates (Bohr) and species
siesta:      3.07086   1.59621   4.94834  1        1
siesta:      3.07086   7.98103   4.94834  1        2
siesta:      3.07086  14.36585   4.94834  1        3
siesta:      3.07086  20.75067   4.94834  1        4
siesta:      3.07086  27.13549   4.94834  1        5
siesta:      7.71180   4.78862   0.00000  1        6
siesta:      7.71180  11.17344   0.00000  1        7
siesta:      7.71180  17.55826   0.00000  1        8
siesta:      7.71180  23.94308   0.00000  1        9
siesta:      7.71180  30.32790   0.00000  1       10
siesta:      5.73951   1.59621  44.41505  2       11
siesta:      5.73951   7.98103  44.41505  2       12
siesta:      5.73951  14.36585  44.41505  2       13
siesta:      5.73951  20.75067  44.41505  2       14
siesta:      5.73951  27.13549  44.41505  2       15
siesta:      5.04315   4.78862   7.77646  2       16
siesta:      5.04315  11.17344   7.77646  2       17
siesta:      5.04315  17.55826   7.77646  2       18
siesta:      5.04315  23.94308   7.77646  2       19
siesta:      5.04315  30.32790   7.77646  2       20
siesta:      7.71053   1.59621   3.31638  2       21
siesta:      7.71053   7.98103   3.31638  2       22
siesta:      7.71053  14.36585   3.31638  2       23
siesta:      7.71053  20.75067   3.31638  2       24
siesta:      7.71053  27.13549   3.31638  2       25
siesta:      3.07212   4.78862   1.63197  2       26
siesta:      3.07212  11.17344   1.63197  2       27
siesta:      3.07212  17.55826   1.63197  2       28
siesta:      3.07212  23.94308   1.63197  2       29
siesta:      3.07212  30.32790   1.63197  2       30
siesta:      0.38870   1.59621  44.35935  2       31
siesta:      0.38870   7.98103  44.35935  2       32
siesta:      0.38870  14.36585  44.35935  2       33
siesta:      0.38870  20.75067  44.35935  2       34
siesta:      0.38870  27.13549  44.35935  2       35
siesta:      1.04435   4.78862   7.83216  2       36
siesta:      1.04435  11.17344   7.83216  2       37
siesta:      1.04435  17.55826   7.83216  2       38
siesta:      1.04435  23.94308   7.83216  2       39
siesta:      1.04435  30.32790   7.83216  2       40
siesta:      3.50610   6.65155  13.83496  3       41
siesta:      3.50610  14.63257  13.83496  3       42
siesta:      3.50610  22.61360  13.83496  3       43
siesta:      3.50610  30.59462  13.83496  3       44
siesta:      8.18091   6.65155  13.83496  3       45
siesta:      8.18091  14.63257  13.83496  3       46
siesta:      8.18091  22.61360  13.83496  3       47
siesta:      8.18091  30.59462  13.83496  3       48
siesta:      3.50610   1.32948  13.83496  3       49
siesta:      3.50610   9.31050  13.83496  3       50
siesta:      3.50610  17.29153  13.83496  3       51
siesta:      3.50610  25.27255  13.83496  3       52
siesta:      8.18091   1.32948  13.83496  3       53
siesta:      8.18091   9.31050  13.83496  3       54
siesta:      8.18091  17.29153  13.83496  3       55
siesta:      8.18091  25.27255  13.83496  3       56
siesta:      1.16870   2.66103  13.83496  3       57
siesta:      1.16870  10.64206  13.83496  3       58
siesta:      1.16870  18.62308  13.83496  3       59
siesta:      1.16870  26.60411  13.83496  3       60
siesta:      5.84351   2.66103  13.83496  3       61
siesta:      5.84351  10.64206  13.83496  3       62
siesta:      5.84351  18.62308  13.83496  3       63
siesta:      5.84351  26.60411  13.83496  3       64
siesta:      1.16870   5.31999  13.83496  3       65
siesta:      1.16870  13.30102  13.83496  3       66
siesta:      1.16870  21.28204  13.83496  3       67
siesta:      1.16870  29.26307  13.83496  3       68
siesta:      5.84351   5.31999  13.83496  3       69
siesta:      5.84351  13.30102  13.83496  3       70
siesta:      5.84351  21.28204  13.83496  3       71
siesta:      5.84351  29.26307  13.83496  3       72

siesta: System type = bulk      

initatomlists: Number of atoms, orbitals, and projectors:     72   956  1152

siesta: ******************** Simulation parameters ****************************
siesta:
siesta: The following are some of the parameters of the simulation.
siesta: A complete list of the parameters used, including default values,
siesta: can be found in file out.fdf
siesta:
redata: Non-Collinear-spin run           =     F
redata: SpinPolarized (Up/Down) run      =     T
redata: Number of spin components        =     2
redata: Long output                      =     F
redata: Number of Atomic Species         =        3
redata: Charge density info will appear in .RHO file
redata: Write Mulliken Pop.              =     NO
redata: Mesh Cutoff                      =   300.0000  Ry
redata: Net charge of the system         =     0.0000 |e|
redata: Max. number of SCF Iter          =      300
redata: Performing Pulay mixing using    =     8 iterations
redata: Mix DM in first SCF step ?       =     F
redata: Write Pulay info on disk?        =     F
redata: Discard 1st Pulay DM after  kick =     F
redata: New DM Mixing Weight             =     0.0500
redata: New DM Occupancy tolerance       = 0.000000000001
redata: No kicks to SCF
redata: DM Mixing Weight for Kicks       =     0.5000
redata: DM Tolerance for SCF             =     0.000100
redata: Require Energy convergence for SCF =     F
redata: DM Energy tolerance for SCF      =     0.000100 eV
redata: Require Harris convergence for SCF =     F
redata: DM Harris energy tolerance for SCF =     0.000100 eV
redata: Antiferro initial spin density   =     F
redata: Using Saved Data (generic)   =     T
redata: Use continuation files for DM    =     T
redata: Neglect nonoverlap interactions  =     F
redata: Method of Calculation            =     Diagonalization
redata: Divide and Conquer               =     T
redata: Electronic Temperature           =     0.0019  Ry
redata: Fix the spin of the system       =     F
redata: Dynamics option                  =     CG coord. optimization
redata: Variable cell                    =     F
redata: Use continuation files for CG    =     T
redata: Max atomic displ per move        =     0.2000  Bohr
redata: Maximum number of CG moves       =     1000
redata: Force tolerance                  =     0.0004  Ry/Bohr
redata: ***********************************************************************
Total number of electrons:   348.000000
Total ionic charge:   348.000000

* ProcessorY, Blocksize:    2  24

k-point displ. along   1 input, could be:     0.00    0.50
k-point displ. along   2 input, could be:     0.00    0.50
 Kpoints in:            8 . Kpoints trimmed:            8

siesta: k-grid: Number of k-points =     8
siesta: k-grid: Cutoff (effective) =    12.500 Ang
siesta: k-grid: Supercell and displacements
siesta: k-grid:    6   0   0      0.000
siesta: k-grid:    0   2   0      0.000
siesta: k-grid:    0   0   1      0.000
Naive supercell factors:     6    2    2

superc: Internal auxiliary supercell:     6 x     2 x     2  =      24
superc: Number of atoms, orbitals, and projectors:   1728  22944  27648

* Maximum dynamic memory allocated =     3 MB

siesta:                 ==============================
                            Begin CG move =      0
                        ==============================

superc: Internal auxiliary supercell:     6 x     2 x     2  =      24
superc: Number of atoms, orbitals, and projectors:   1728  22944  27648

outcell: Unit cell vectors (Ang):
        4.947600    0.000000    0.000000
        0.000000   16.893500    0.000000
        0.000000    0.000000   25.000000

outcell: Cell vector modules (Ang)   :    4.947600   16.893500   25.000000
outcell: Cell angles (23,13,12) (deg):     90.0000     90.0000     90.0000
outcell: Cell volume (Ang**3)        :   2089.5570
New_DM. Step:     1
Initializing Density Matrix...

InitMesh: MESH =    54 x   180 x   270 =     2624400
InitMesh: Mesh cutoff (required, used) =   300.000   313.767 Ry

* Maximum dynamic memory allocated =   785 MB

stepf: Fermi-Dirac step function

siesta: Program's energy decomposition (eV):
siesta: Ebs     =     -4624.405026
siesta: Eions   =     23488.662927
siesta: Ena     =      5278.784197
siesta: Ekin    =      7317.938443
siesta: Enl     =       392.574221
siesta: DEna    =        -0.000006
siesta: DUscf   =         0.000000
siesta: DUext   =         0.000000
siesta: Exc     =     -5577.042484
siesta: eta*DQ  =         0.000000
siesta: Emadel  =         0.000000
siesta: Emeta   =         0.000000
siesta: Emolmec =         0.000000
siesta: Ekinion =         0.000000
siesta: Eharris =    -15835.092626
siesta: Etot    =    -16076.408556
siesta: FreeEng =    -16076.408556

siesta: iscf   Eharris(eV)      E_KS(eV)   FreeEng(eV)   dDmax  Ef(eV)
siesta:    1   -15835.0926   -16076.4086   -16076.4086  0.8918 -5.6974
timer: Routine,Calls,Time,% = IterSCF        1     347.684  98.09
elaps: Routine,Calls,Wall,% = IterSCF        1      87.096  98.09
siesta:    2   -18311.4003   -15820.6651   -15820.7199  2.9492 -8.6683
siesta:    3   -15942.2341   -15989.7762   -15989.8430  0.6602 -4.6770
siesta:    4   -15888.6989   -15932.7918   -15932.8648  0.4929 -5.1676
siesta:    5   -15915.1881   -15859.7445   -15859.7773  0.2917 -4.9461
siesta:    6   -15912.8986   -15845.1813   -15845.2207  0.2414 -4.9128
siesta:    7   -15911.0295   -15842.5635   -15842.5910  0.2036 -5.0265
siesta:    8   -15910.9201   -15845.6384   -15845.6655  0.1888 -4.9948
siesta:    9   -15910.9956   -15847.8986   -15847.9199  0.1813 -4.9863
siesta:   10   -15912.2282   -15880.7499   -15880.7699  0.1137 -4.9610
siesta:   11   -15911.9927   -15887.6760   -15887.6877  0.1043 -5.1075
siesta:   12   -15911.6282   -15889.1928   -15889.2015  0.0935 -5.1177
siesta:   13   -15911.6087   -15891.3660   -15891.3748  0.0874 -5.1056
siesta:   14   -15911.6081   -15906.3199   -15906.3274  0.0571 -5.1816
siesta:   15   -15911.5711   -15912.2322   -15912.2394  0.0435 -5.1745
siesta:   16   -15911.5892   -15912.5780   -15912.5847  0.0430 -5.1883
siesta:   17   -15911.6044   -15912.7396   -15912.7464  0.0442 -5.2033
siesta:   18   -15911.6243   -15911.9163   -15911.9232  0.0349 -5.1789
siesta:   19   -15911.7122   -15911.0441   -15911.0514  0.0232 -5.1311
siesta:   20   -15911.7800   -15912.0728   -15912.0781  0.0207 -5.0782
siesta:   21   -15911.7597   -15911.1475   -15911.1530  0.0200 -5.0652
siesta:   22   -15911.7333   -15910.5376   -15910.5433  0.0195 -5.0426
siesta:   23   -15911.7272   -15910.6509   -15910.6575  0.0224 -5.0269
siesta:   24   -15911.7255   -15911.0139   -15911.0212  0.0229 -5.0209
siesta:   25   -15911.7315   -15911.6046   -15911.6131  0.0221 -5.0248
siesta:   26   -15911.7344   -15912.1041   -15912.1117  0.0209 -5.0186
siesta:   27   -15911.7368   -15913.1581   -15913.1667  0.0193 -5.0310
siesta:   28   -15911.7522   -15912.3666   -15912.3750  0.0149 -5.0708
siesta:   29   -15911.7587   -15911.6369   -15911.6434  0.0136 -5.0620
siesta:   30   -15911.7642   -15911.6556   -15911.6631  0.0091 -5.0225
siesta:   31   -15911.7713   -15911.5623   -15911.5731  0.0098 -5.0125
siesta:   32   -15911.7762   -15911.2453   -15911.2547  0.0071 -5.0030
siesta:   33   -15911.7817   -15910.7787   -15910.7892  0.0059 -5.0023
siesta:   34   -15911.7847   -15910.6358   -15910.6464  0.0055 -5.0031
siesta:   35   -15911.7936   -15910.6049   -15910.6158  0.0041 -4.9948
siesta:   36   -15911.7974   -15910.9405   -15910.9515  0.0032 -4.9883
siesta:   37   -15911.7986   -15911.1230   -15911.1345  0.0028 -4.9889
siesta:   38   -15911.8010   -15911.4226   -15911.4340  0.0024 -4.9918
siesta:   39   -15911.8022   -15911.5211   -15911.5325  0.0019 -4.9911
siesta:   40   -15911.8040   -15911.7914   -15911.8027  0.0012 -4.9890
siesta:   41   -15911.8042   -15911.7293   -15911.7406  0.0013 -4.9897
siesta:   42   -15911.8043   -15911.8886   -15911.8998  0.0008 -4.9898
siesta:   43   -15911.8042   -15911.9221   -15911.9336  0.0007 -4.9897
siesta:   44   -15911.8043   -15911.8523   -15911.8637  0.0007 -4.9906
siesta:   45   -15911.8043   -15911.8451   -15911.8565  0.0007 -4.9906
siesta:   46   -15911.8045   -15911.8711   -15911.8824  0.0006 -4.9891
siesta:   47   -15911.8044   -15911.8521   -15911.8634  0.0005 -4.9890
siesta:   48   -15911.8045   -15911.8525   -15911.8640  0.0004 -4.9892
siesta:   49   -15911.8045   -15911.8458   -15911.8572  0.0003 -4.9893
siesta:   50   -15911.8045   -15911.7871   -15911.7986  0.0001 -4.9900
siesta:   51   -15911.8045   -15911.7955   -15911.8069  0.0001 -4.9899

siesta: E_KS(eV) =           -15911.7906

siesta: E_KS - E_eggbox =    -15911.7906

siesta: Atomic forces (eV/Ang):
----------------------------------------
   Tot   -0.208013   -0.000000   -0.039939
----------------------------------------
   Max    0.494259
   Res    0.212744    sqrt( Sum f_i^2 / 3N )
----------------------------------------
   Max    0.494259    constrained

Stress-tensor-Voigt (kbar):      -21.72      -46.34      -23.23        0.00       -0.00       -1.63
(Free)E + p*V (eV/cell)   -15872.1175
Target enthalpy (eV/cell)   -15911.8020

cgvc: WARNING: CG file not found

* Maximum dynamic memory allocated =   817 MB

siesta:                 ==============================
                            Begin CG move =      1
                        ==============================

superc: Internal auxiliary supercell:     6 x     2 x     2  =      24
superc: Number of atoms, orbitals, and projectors:   1728  22944  27648

outcell: Unit cell vectors (Ang):
        4.947600    0.000000    0.000000
        0.000000   16.893500    0.000000
        0.000000    0.000000   25.000000

outcell: Cell vector modules (Ang)   :    4.947600   16.893500   25.000000
outcell: Cell angles (23,13,12) (deg):     90.0000     90.0000     90.0000
outcell: Cell volume (Ang**3)        :   2089.5570
New_DM. Step:     2
Re-using DM from previous geometry...
Re-using DM without extrapolation (not allowed)
Density Matrix sparsity pattern changed.

siesta: iscf   Eharris(eV)      E_KS(eV)   FreeEng(eV)   dDmax  Ef(eV)
siesta:    1   -15911.9774   -15913.0026   -15913.0140  0.0287 -5.0228
siesta:    2   -15913.6573   -15911.5699   -15911.5837  0.0863 -5.0440
siesta:    3   -15911.9031   -15912.6333   -15912.6654  0.0144 -4.9059
siesta:    4   -15911.9095   -15912.4619   -15912.4758  0.0117 -4.8973
siesta:    5   -15911.9128   -15911.9860   -15911.9999  0.0095 -4.9442
siesta:    6   -15911.8986   -15911.8767   -15911.8908  0.0034 -4.9479
siesta:    7   -15911.8946   -15911.8462   -15911.8600  0.0019 -4.9438
siesta:    8   -15911.8935   -15911.8473   -15911.8614  0.0012 -4.9420
siesta:    9   -15911.8929   -15911.8577   -15911.8720  0.0006 -4.9395
siesta:   10   -15911.8927   -15911.8664   -15911.8805  0.0004 -4.9402
siesta:   11   -15911.8927   -15911.8743   -15911.8885  0.0003 -4.9396
siesta:   12   -15911.8927   -15911.8839   -15911.8981  0.0001 -4.9388
siesta:   13   -15911.8927   -15911.8880   -15911.9021  0.0001 -4.9393
siesta:   14   -15911.8927   -15911.8901   -15911.9042  0.0000 -4.9395

siesta: E_KS(eV) =           -15911.8902

siesta: Atomic forces (eV/Ang):
----------------------------------------
   Tot   -0.027560    0.000000   -0.145264
----------------------------------------
   Max    0.772624
   Res    0.292910    sqrt( Sum f_i^2 / 3N )
----------------------------------------
   Max    0.772624    constrained

Stress-tensor-Voigt (kbar):      -30.02      -42.82      -21.61        0.00       -0.00       -0.91
(Free)E + p*V (eV/cell)   -15870.8459
Target enthalpy (eV/cell)   -15911.9043

* Maximum dynamic memory allocated =   833 MB

siesta:                 ==============================
                            Begin CG move =      2
                        ==============================

superc: Internal auxiliary supercell:     6 x     2 x     2  =      24
superc: Number of atoms, orbitals, and projectors:   1728  22944  27648

outcell: Unit cell vectors (Ang):
        4.947600    0.000000    0.000000
        0.000000   16.893500    0.000000
        0.000000    0.000000   25.000000

outcell: Cell vector modules (Ang)   :    4.947600   16.893500   25.000000
outcell: Cell angles (23,13,12) (deg):     90.0000     90.0000     90.0000
outcell: Cell volume (Ang**3)        :   2089.5570
New_DM. Step:     3
Re-using DM from previous geometry...
Re-using DM without extrapolation (not allowed)
Density Matrix sparsity pattern changed.

siesta: iscf   Eharris(eV)      E_KS(eV)   FreeEng(eV)   dDmax  Ef(eV)
siesta:    1   -15911.9228   -15911.5373   -15911.5515  0.0133 -4.9196
siesta:    2   -15912.0844   -15911.8826   -15911.8962  0.0256 -5.1473
siesta:    3   -15911.9165   -15911.6549   -15911.6657  0.0090 -4.9629
siesta:    4   -15911.9155   -15911.6978   -15911.7117  0.0075 -4.9470
siesta:    5   -15911.9173   -15911.8137   -15911.8272  0.0033 -4.9483
siesta:    6   -15911.9157   -15911.8933   -15911.9068  0.0015 -4.9492
siesta:    7   -15911.9149   -15911.9067   -15911.9206  0.0007 -4.9458
siesta:    8   -15911.9149   -15911.9094   -15911.9231  0.0003 -4.9438
siesta:    9   -15911.9148   -15911.9108   -15911.9243  0.0002 -4.9451
siesta:   10   -15911.9148   -15911.9120   -15911.9257  0.0002 -4.9455
siesta:   11   -15911.9148   -15911.9127   -15911.9263  0.0001 -4.9449

siesta: E_KS(eV) =           -15911.9140

siesta: Atomic forces (eV/Ang):
----------------------------------------
   Tot   -0.036146    0.000000   -0.106007
----------------------------------------
   Max    0.508693
   Res    0.211161    sqrt( Sum f_i^2 / 3N )
----------------------------------------
   Max    0.508693    constrained

Stress-tensor-Voigt (kbar):      -27.85      -43.31      -22.09        0.00       -0.00       -1.10
(Free)E + p*V (eV/cell)   -15871.3888
Target enthalpy (eV/cell)   -15911.9277

cgvc: Finished line minimization    1.  Mean atomic displacement =    0.0166

* Maximum dynamic memory allocated =   834 MB

siesta:                 ==============================
                            Begin CG move =      3
                        ==============================

superc: Internal auxiliary supercell:     6 x     2 x     2  =      24
superc: Number of atoms, orbitals, and projectors:   1728  22944  27648

outcell: Unit cell vectors (Ang):
        4.947600    0.000000    0.000000
        0.000000   16.893500    0.000000
        0.000000    0.000000   25.000000

outcell: Cell vector modules (Ang)   :    4.947600   16.893500   25.000000
outcell: Cell angles (23,13,12) (deg):     90.0000     90.0000     90.0000
outcell: Cell volume (Ang**3)        :   2089.5570
New_DM. Step:     4
Re-using DM from previous geometry...
Re-using DM without extrapolation (not allowed)
Density Matrix sparsity pattern changed.

siesta: iscf   Eharris(eV)      E_KS(eV)   FreeEng(eV)   dDmax  Ef(eV)
siesta:    1   -15912.0446   -15912.7084   -15912.7220  0.0175 -4.9886
siesta:    2   -15912.9556   -15911.8420   -15911.8517  0.0573 -4.8361
siesta:    3   -15912.0132   -15912.5086   -15912.5219  0.0100 -4.9471
siesta:    4   -15912.0081   -15912.3926   -15912.4009  0.0080 -4.9396
siesta:    5   -15912.0129   -15912.2155   -15912.2255  0.0057 -4.9353
siesta:    6   -15912.0092   -15912.0618   -15912.0726  0.0040 -4.9568
siesta:    7   -15912.0070   -15912.0173   -15912.0276  0.0023 -4.9593
siesta:    8   -15912.0059   -15911.9925   -15912.0025  0.0009 -4.9539
siesta:    9   -15912.0056   -15911.9936   -15912.0035  0.0005 -4.9527
siesta:   10   -15912.0055   -15911.9966   -15912.0064  0.0003 -4.9535
siesta:   11   -15912.0054   -15911.9990   -15912.0089  0.0002 -4.9533
siesta:   12   -15912.0054   -15912.0006   -15912.0105  0.0001 -4.9534
siesta:   13   -15912.0054   -15912.0037   -15912.0135  0.0001 -4.9530
siesta:   14   -15912.0054   -15912.0036   -15912.0135  0.0001 -4.9529

siesta: E_KS(eV) =           -15912.0032

siesta: Atomic forces (eV/Ang):
----------------------------------------
   Tot    0.002022    0.000000   -0.178944
----------------------------------------
   Max    0.320056
   Res    0.100117    sqrt( Sum f_i^2 / 3N )
----------------------------------------
   Max    0.320056    constrained

Stress-tensor-Voigt (kbar):      -30.45      -44.38      -20.43        0.00       -0.00       -0.52
(Free)E + p*V (eV/cell)   -15870.6051
Target enthalpy (eV/cell)   -15912.0131

* Maximum dynamic memory allocated =   835 MB

siesta:                 ==============================
                            Begin CG move =      4
                        ==============================

superc: Internal auxiliary supercell:     6 x     2 x     2  =      24
superc: Number of atoms, orbitals, and projectors:   1728  22944  27648

outcell: Unit cell vectors (Ang):
        4.947600    0.000000    0.000000
        0.000000   16.893500    0.000000
        0.000000    0.000000   25.000000

outcell: Cell vector modules (Ang)   :    4.947600   16.893500   25.000000
outcell: Cell angles (23,13,12) (deg):     90.0000     90.0000     90.0000
outcell: Cell volume (Ang**3)        :   2089.5570
New_DM. Step:     5
Re-using DM from previous geometry...
Re-using DM without extrapolation (not allowed)
Density Matrix sparsity pattern changed.

siesta: iscf   Eharris(eV)      E_KS(eV)   FreeEng(eV)   dDmax  Ef(eV)
siesta:    1   -15911.9249   -15913.1169   -15913.1267  0.0277 -5.0312
siesta:    2   -15914.1186   -15911.4087   -15911.4152  0.0873 -4.5369
siesta:    3   -15911.8428   -15912.7302   -15912.7415  0.0157 -4.9562
siesta:    4   -15911.8319   -15912.5006   -15912.5044  0.0123 -4.9535
siesta:    5   -15911.8411   -15912.1174   -15912.1256  0.0093 -4.9574
siesta:    6   -15911.8293   -15912.0326   -15912.0434  0.0062 -4.9823
siesta:    7   -15911.8266   -15911.8255   -15911.8322  0.0046 -4.9876
siesta:    8   -15911.8236   -15911.7891   -15911.7977  0.0016 -4.9761
siesta:    9   -15911.8224   -15911.7858   -15911.7934  0.0008 -4.9744
siesta:   10   -15911.8222   -15911.7953   -15911.8034  0.0007 -4.9741
siesta:   11   -15911.8218   -15911.8045   -15911.8123  0.0003 -4.9747
siesta:   12   -15911.8218   -15911.8064   -15911.8145  0.0004 -4.9745
siesta:   13   -15911.8217   -15911.8082   -15911.8163  0.0002 -4.9739
siesta:   14   -15911.8217   -15911.8167   -15911.8248  0.0001 -4.9742
siesta:   15   -15911.8217   -15911.8177   -15911.8259  0.0001 -4.9741
siesta:   16   -15911.8217   -15911.8201   -15911.8283  0.0001 -4.9741

siesta: E_KS(eV) =           -15911.8203

siesta: Atomic forces (eV/Ang):
----------------------------------------
   Tot    0.074195    0.000000   -0.072792
----------------------------------------
   Max    0.759972
   Res    0.377495    sqrt( Sum f_i^2 / 3N )
----------------------------------------
   Max    0.759972    constrained

Stress-tensor-Voigt (kbar):      -35.56      -47.07      -17.88       -0.00        0.00        0.29
(Free)E + p*V (eV/cell)   -15868.1351
Target enthalpy (eV/cell)   -15911.8285

* Maximum dynamic memory allocated =   835 MB

siesta:                 ==============================
                            Begin CG move =      5
                        ==============================

superc: Internal auxiliary supercell:     6 x     2 x     2  =      24
superc: Number of atoms, orbitals, and projectors:   1728  22944  27648

outcell: Unit cell vectors (Ang):
        4.947600    0.000000    0.000000
        0.000000   16.893500    0.000000
        0.000000    0.000000   25.000000

outcell: Cell vector modules (Ang)   :    4.947600   16.893500   25.000000
outcell: Cell angles (23,13,12) (deg):     90.0000     90.0000     90.0000
outcell: Cell volume (Ang**3)        :   2089.5570
New_DM. Step:     6
Re-using DM from previous geometry...
Re-using DM without extrapolation (not allowed)
Density Matrix sparsity pattern changed.

siesta: iscf   Eharris(eV)      E_KS(eV)   FreeEng(eV)   dDmax  Ef(eV)
siesta:    1   -15912.1005   -15910.6653   -15910.6735  0.0265 -4.8935
siesta:    2   -15914.2154   -15911.6275   -15911.6381  0.1047 -5.4116
siesta:    3   -15912.0176   -15911.0158   -15911.0223  0.0148 -4.9597
siesta:    4   -15912.0374   -15911.4340   -15911.4446  0.0103 -4.9911
siesta:    5   -15912.0356   -15911.5315   -15911.5370  0.0094 -4.9843
siesta:    6   -15912.0145   -15911.8495   -15911.8548  0.0051 -4.9444
siesta:    7   -15912.0075   -15911.9330   -15911.9418  0.0025 -4.9522
siesta:    8   -15912.0073   -15911.9572   -15911.9672  0.0010 -4.9565
siesta:    9   -15912.0061   -15911.9709   -15911.9803  0.0007 -4.9541
siesta:   10   -15912.0060   -15911.9752   -15911.9851  0.0006 -4.9543
siesta:   11   -15912.0059   -15911.9873   -15911.9971  0.0004 -4.9532
siesta:   12   -15912.0061   -15911.9915   -15912.0013  0.0003 -4.9544
siesta:   13   -15912.0059   -15911.9977   -15912.0073  0.0002 -4.9542
siesta:   14   -15912.0059   -15912.0032   -15912.0129  0.0001 -4.9541

siesta: E_KS(eV) =           -15912.0041

siesta: Atomic forces (eV/Ang):
----------------------------------------
   Tot    0.016751    0.000000   -0.175645
----------------------------------------
   Max    0.318360
   Res    0.102954    sqrt( Sum f_i^2 / 3N )
----------------------------------------
   Max    0.318360    constrained

Stress-tensor-Voigt (kbar):      -30.64      -44.47      -20.33        0.00        0.00       -0.47
(Free)E + p*V (eV/cell)   -15870.5234
Target enthalpy (eV/cell)   -15912.0139

cgvc: Finished line minimization    2.  Mean atomic displacement =    0.0178

* Maximum dynamic memory allocated =   837 MB

siesta:                 ==============================
                            Begin CG move =      6
                        ==============================

superc: Internal auxiliary supercell:     6 x     2 x     2  =      24
superc: Number of atoms, orbitals, and projectors:   1728  22944  27648

outcell: Unit cell vectors (Ang):
        4.947600    0.000000    0.000000
        0.000000   16.893500    0.000000
        0.000000    0.000000   25.000000

outcell: Cell vector modules (Ang)   :    4.947600   16.893500   25.000000
outcell: Cell angles (23,13,12) (deg):     90.0000     90.0000     90.0000
outcell: Cell volume (Ang**3)        :   2089.5570
New_DM. Step:     7
Re-using DM from previous geometry...
Re-using DM without extrapolation (not allowed)
Density Matrix sparsity pattern changed.

siesta: iscf   Eharris(eV)      E_KS(eV)   FreeEng(eV)   dDmax  Ef(eV)
siesta:    1   -15912.1484   -15910.8140   -15910.8237  0.0141 -4.9659
siesta:    2   -15920.3107   -15911.4485   -15911.4569  0.1654 -4.8885
siesta:    3   -15912.0905   -15910.8929   -15910.9255  0.0119 -4.9402
siesta:    4   -15912.0773   -15911.0200   -15911.0315  0.0100 -4.9760
siesta:    5   -15912.0751   -15911.0584   -15911.0676  0.0086 -4.9708
siesta:    6   -15912.0748   -15911.4669   -15911.4768  0.0054 -4.9883
siesta:    7   -15912.0791   -15911.8075   -15911.8172  0.0034 -4.9977
siesta:    8   -15912.0759   -15912.0610   -15912.0684  0.0015 -4.9822
siesta:    9   -15912.0728   -15912.0869   -15912.0952  0.0007 -4.9792
siesta:   10   -15912.0729   -15912.0892   -15912.0989  0.0005 -4.9816
siesta:   11   -15912.0728   -15912.0868   -15912.0963  0.0004 -4.9814
siesta:   12   -15912.0728   -15912.0779   -15912.0874  0.0001 -4.9815
siesta:   13   -15912.0728   -15912.0771   -15912.0865  0.0001 -4.9812
siesta:   14   -15912.0727   -15912.0742   -15912.0837  0.0000 -4.9809

siesta: E_KS(eV) =           -15912.0730

siesta: Atomic forces (eV/Ang):
----------------------------------------
   Tot   -0.125699   -0.000000   -0.091642
----------------------------------------
   Max    0.320382
   Res    0.124304    sqrt( Sum f_i^2 / 3N )
----------------------------------------
   Max    0.320382    constrained

Stress-tensor-Voigt (kbar):      -25.52      -44.05      -17.50       -0.00       -0.00       -0.07
(Free)E + p*V (eV/cell)   -15874.2315
Target enthalpy (eV/cell)   -15912.0825

* Maximum dynamic memory allocated =   838 MB

siesta:                 ==============================
                            Begin CG move =      7
                        ==============================

superc: Internal auxiliary supercell:     6 x     2 x     2  =      24
superc: Number of atoms, orbitals, and projectors:   1728  22944  27648

outcell: Unit cell vectors (Ang):
        4.947600    0.000000    0.000000
        0.000000   16.893500    0.000000
        0.000000    0.000000   25.000000

outcell: Cell vector modules (Ang)   :    4.947600   16.893500   25.000000
outcell: Cell angles (23,13,12) (deg):     90.0000     90.0000     90.0000
outcell: Cell volume (Ang**3)        :   2089.5570
New_DM. Step:     8
Re-using DM from previous geometry...
Re-using DM without extrapolation (not allowed)
Density Matrix sparsity pattern changed.

siesta: iscf   Eharris(eV)      E_KS(eV)   FreeEng(eV)   dDmax  Ef(eV)
siesta:    1   -15912.1768   -15910.0937   -15910.1032  0.0218 -5.0843
siesta:    2   -15934.5799   -15910.7573   -15910.7686  0.3332 -4.8347
siesta:    3   -15912.0820   -15910.1810   -15910.2720  0.0182 -5.0294
siesta:    4   -15912.0068   -15910.3851   -15910.3962  0.0151 -5.0157
siesta:    5   -15912.0032   -15910.4749   -15910.4867  0.0134 -5.0183
siesta:    6   -15912.0148   -15911.2926   -15911.3040  0.0075 -5.0549
siesta:    7   -15912.0149   -15911.5634   -15911.5690  0.0056 -5.0509
siesta:    8   -15912.0058   -15912.0430   -15912.0478  0.0021 -5.0312
siesta:    9   -15911.9981   -15912.0710   -15912.0779  0.0012 -5.0257
siesta:   10   -15911.9986   -15912.0730   -15912.0834  0.0012 -5.0301
siesta:   11   -15911.9979   -15912.0669   -15912.0768  0.0010 -5.0274
siesta:   12   -15911.9989   -15912.0486   -15912.0588  0.0007 -5.0285
siesta:   13   -15911.9984   -15912.0151   -15912.0244  0.0003 -5.0268
siesta:   14   -15911.9982   -15912.0072   -15912.0169  0.0002 -5.0263
siesta:   15   -15911.9979   -15911.9927   -15912.0025  0.0002 -5.0254
siesta:   16   -15911.9979   -15911.9898   -15911.9998  0.0001 -5.0258

siesta: E_KS(eV) =           -15911.9886

siesta: Atomic forces (eV/Ang):
----------------------------------------
   Tot   -0.217579   -0.000000   -0.077193
----------------------------------------
   Max    0.896124
   Res    0.335224    sqrt( Sum f_i^2 / 3N )
----------------------------------------
   Max    0.896124    constrained

Stress-tensor-Voigt (kbar):      -17.90      -44.10      -13.34        0.00        0.00        0.45
(Free)E + p*V (eV/cell)   -15879.2403
Target enthalpy (eV/cell)   -15911.9987

* Maximum dynamic memory allocated =   839 MB

siesta:                 ==============================
                            Begin CG move =      8
                        ==============================

superc: Internal auxiliary supercell:     6 x     2 x     2  =      24
superc: Number of atoms, orbitals, and projectors:   1728  22944  27648

outcell: Unit cell vectors (Ang):
        4.947600    0.000000    0.000000
        0.000000   16.893500    0.000000
        0.000000    0.000000   25.000000

outcell: Cell vector modules (Ang)   :    4.947600   16.893500   25.000000
outcell: Cell angles (23,13,12) (deg):     90.0000     90.0000     90.0000
outcell: Cell volume (Ang**3)        :   2089.5570
New_DM. Step:     9
Re-using DM from previous geometry...
Re-using DM without extrapolation (not allowed)
Density Matrix sparsity pattern changed.

siesta: iscf   Eharris(eV)      E_KS(eV)   FreeEng(eV)   dDmax  Ef(eV)
siesta:    1   -15912.1842   -15913.5988   -15913.6088  0.0177 -5.1288
siesta:    2   -15920.1997   -15911.5272   -15911.5285  0.2532 -5.3994
siesta:    3   -15912.1251   -15913.3797   -15913.4097  0.0129 -5.0484
siesta:    4   -15912.0843   -15913.0382   -15913.0397  0.0111 -4.9936
siesta:    5   -15912.0783   -15912.9100   -15912.9175  0.0096 -4.9913
siesta:    6   -15912.0887   -15912.1952   -15912.2044  0.0043 -4.9710
siesta:    7   -15912.0832   -15912.1972   -15912.2092  0.0035 -4.9700
siesta:    8   -15912.0778   -15912.1613   -15912.1729  0.0031 -4.9825
siesta:    9   -15912.0760   -15912.0674   -15912.0767  0.0006 -4.9895
siesta:   10   -15912.0763   -15912.0673   -15912.0765  0.0007 -4.9901
siesta:   11   -15912.0755   -15912.0714   -15912.0803  0.0004 -4.9880
siesta:   12   -15912.0755   -15912.0746   -15912.0840  0.0003 -4.9880
siesta:   13   -15912.0754   -15912.0768   -15912.0863  0.0001 -4.9877
siesta:   14   -15912.0754   -15912.0780   -15912.0875  0.0001 -4.9880

siesta: E_KS(eV) =           -15912.0802

siesta: Atomic forces (eV/Ang):
----------------------------------------
   Tot   -0.141827    0.000000   -0.115335
----------------------------------------
   Max    0.410523
   Res    0.154219    sqrt( Sum f_i^2 / 3N )
----------------------------------------
   Max    0.410523    constrained

Stress-tensor-Voigt (kbar):      -24.27      -43.99      -16.83       -0.00        0.00        0.00
(Free)E + p*V (eV/cell)   -15875.1022
Target enthalpy (eV/cell)   -15912.0897

cgvc: Finished line minimization    3.  Mean atomic displacement =    0.0224

* Maximum dynamic memory allocated =   841 MB

siesta:                 ==============================
                            Begin CG move =      9
                        ==============================

superc: Internal auxiliary supercell:     6 x     2 x     2  =      24
superc: Number of atoms, orbitals, and projectors:   1728  22944  27648

outcell: Unit cell vectors (Ang):
        4.947600    0.000000    0.000000
        0.000000   16.893500    0.000000
        0.000000    0.000000   25.000000

outcell: Cell vector modules (Ang)   :    4.947600   16.893500   25.000000
outcell: Cell angles (23,13,12) (deg):     90.0000     90.0000     90.0000
outcell: Cell volume (Ang**3)        :   2089.5570
New_DM. Step:    10
Re-using DM from previous geometry...
Re-using DM without extrapolation (not allowed)
Density Matrix sparsity pattern changed.

siesta: iscf   Eharris(eV)      E_KS(eV)   FreeEng(eV)   dDmax  Ef(eV)
siesta:    1   -15912.1753   -15910.9993   -15911.0088  0.0115 -4.9871
siesta:    2   -15918.7257   -15911.5977   -15911.6071  0.1557 -4.8980
siesta:    3   -15912.1240   -15911.0764   -15911.1182  0.0100 -4.9447
siesta:    4   -15912.1121   -15911.2382   -15911.2496  0.0116 -4.9828
siesta:    5   -15912.1037   -15911.2671   -15911.2789  0.0090 -4.9711
siesta:    6   -15912.1056   -15911.6572   -15911.6698  0.0046 -4.9868
siesta:    7   -15912.1096   -15911.9158   -15911.9281  0.0045 -4.9960
siesta:    8   -15912.1023   -15912.0322   -15912.0442  0.0013 -4.9656
siesta:    9   -15912.1015   -15912.0442   -15912.0566  0.0012 -4.9681
siesta:   10   -15912.1012   -15912.0520   -15912.0645  0.0005 -4.9663
siesta:   11   -15912.1010   -15912.0645   -15912.0770  0.0004 -4.9674
siesta:   12   -15912.1011   -15912.0708   -15912.0833  0.0004 -4.9673
siesta:   13   -15912.1011   -15912.0845   -15912.0970  0.0002 -4.9672
siesta:   14   -15912.1010   -15912.0993   -15912.1117  0.0002 -4.9675
siesta:   15   -15912.1010   -15912.0970   -15912.1095  0.0001 -4.9673
siesta:   16   -15912.1010   -15912.0996   -15912.1120  0.0000 -4.9674

siesta: E_KS(eV) =           -15912.0995

siesta: Atomic forces (eV/Ang):
----------------------------------------
   Tot   -0.195062   -0.000000   -0.079370
----------------------------------------
   Max    0.377871
   Res    0.175501    sqrt( Sum f_i^2 / 3N )
----------------------------------------
   Max    0.377871    constrained

Stress-tensor-Voigt (kbar):      -23.46      -39.97      -13.87        0.00        0.00        0.31
(Free)E + p*V (eV/cell)   -15878.5080
Target enthalpy (eV/cell)   -15912.1119

* Maximum dynamic memory allocated =   842 MB

siesta:                 ==============================
                            Begin CG move =     10
                        ==============================

superc: Internal auxiliary supercell:     6 x     2 x     2  =      24
superc: Number of atoms, orbitals, and projectors:   1728  22944  27648

outcell: Unit cell vectors (Ang):
        4.947600    0.000000    0.000000
        0.000000   16.893500    0.000000
        0.000000    0.000000   25.000000

outcell: Cell vector modules (Ang)   :    4.947600   16.893500   25.000000
outcell: Cell angles (23,13,12) (deg):     90.0000     90.0000     90.0000
outcell: Cell volume (Ang**3)        :   2089.5570
New_DM. Step:    11
Re-using DM from previous geometry...
Re-using DM without extrapolation (not allowed)
Density Matrix sparsity pattern changed.

siesta: iscf   Eharris(eV)      E_KS(eV)   FreeEng(eV)   dDmax  Ef(eV)
siesta:    1   -15912.1239   -15912.4608   -15912.4733  0.0037 -5.0003
siesta:    2   -15912.8167   -15912.0347   -15912.0429  0.0481 -5.2705
siesta:    3   -15912.1141   -15912.4000   -15912.4239  0.0042 -4.9703
siesta:    4   -15912.1135   -15912.3949   -15912.4058  0.0029 -4.9760
siesta:    5   -15912.1138   -15912.2273   -15912.2380  0.0017 -4.9612
siesta:    6   -15912.1136   -15912.1672   -15912.1783  0.0014 -4.9667
siesta:    7   -15912.1132   -15912.1131   -15912.1240  0.0008 -4.9707
siesta:    8   -15912.1131   -15912.1096   -15912.1206  0.0002 -4.9729
siesta:    9   -15912.1131   -15912.1098   -15912.1205  0.0001 -4.9728
siesta:   10   -15912.1131   -15912.1105   -15912.1212  0.0001 -4.9724
siesta:   11   -15912.1131   -15912.1120   -15912.1227  0.0001 -4.9728

siesta: E_KS(eV) =           -15912.1122

siesta: Atomic forces (eV/Ang):
----------------------------------------
   Tot   -0.170459    0.000000   -0.083675
----------------------------------------
   Max    0.264676
   Res    0.107011    sqrt( Sum f_i^2 / 3N )
----------------------------------------
   Max    0.264676    constrained

Stress-tensor-Voigt (kbar):      -23.80      -41.19      -14.86       -0.00       -0.00        0.23
(Free)E + p*V (eV/cell)   -15877.4085
Target enthalpy (eV/cell)   -15912.1229

cgvc: Finished line minimization    4.  Mean atomic displacement =    0.0150

* Maximum dynamic memory allocated =   842 MB

siesta:                 ==============================
                            Begin CG move =     11
                        ==============================

superc: Internal auxiliary supercell:     6 x     2 x     2  =      24
superc: Number of atoms, orbitals, and projectors:   1728  22944  27648

outcell: Unit cell vectors (Ang):
        4.947600    0.000000    0.000000
        0.000000   16.893500    0.000000
        0.000000    0.000000   25.000000

outcell: Cell vector modules (Ang)   :    4.947600   16.893500   25.000000
outcell: Cell angles (23,13,12) (deg):     90.0000     90.0000     90.0000
outcell: Cell volume (Ang**3)        :   2089.5570
New_DM. Step:    12
Re-using DM from previous geometry...
Re-using DM without extrapolation (not allowed)
Density Matrix sparsity pattern changed.

siesta: iscf   Eharris(eV)      E_KS(eV)   FreeEng(eV)   dDmax  Ef(eV)
siesta:    1   -15912.1705   -15912.1127   -15912.1234  0.0038 -4.9676
siesta:    2   -15912.6284   -15912.1171   -15912.1283  0.0398 -5.0270
siesta:    3   -15912.1670   -15912.1177   -15912.1294  0.0034 -4.9761
siesta:    4   -15912.1666   -15912.1197   -15912.1301  0.0033 -4.9744
siesta:    5   -15912.1665   -15912.1445   -15912.1550  0.0019 -4.9689
siesta:    6   -15912.1664   -15912.1552   -15912.1658  0.0015 -4.9711
siesta:    7   -15912.1662   -15912.1619   -15912.1725  0.0010 -4.9739
siesta:    8   -15912.1660   -15912.1636   -15912.1742  0.0003 -4.9727
siesta:    9   -15912.1660   -15912.1647   -15912.1752  0.0001 -4.9725
siesta:   10   -15912.1660   -15912.1648   -15912.1754  0.0001 -4.9726

siesta: E_KS(eV) =           -15912.1651

siesta: Atomic forces (eV/Ang):
----------------------------------------
   Tot   -0.124713   -0.000000   -0.046098
----------------------------------------
   Max    0.182098
   Res    0.089338    sqrt( Sum f_i^2 / 3N )
----------------------------------------
   Max    0.182098    constrained

Stress-tensor-Voigt (kbar):      -24.51      -40.76      -13.31        0.00        0.00        0.22
(Free)E + p*V (eV/cell)   -15878.0169
Target enthalpy (eV/cell)   -15912.1756

* Maximum dynamic memory allocated =   844 MB

siesta:                 ==============================
                            Begin CG move =     12
                        ==============================

superc: Internal auxiliary supercell:     6 x     2 x     2  =      24
superc: Number of atoms, orbitals, and projectors:   1728  22944  27648

outcell: Unit cell vectors (Ang):
        4.947600    0.000000    0.000000
        0.000000   16.893500    0.000000
        0.000000    0.000000   25.000000

outcell: Cell vector modules (Ang)   :    4.947600   16.893500   25.000000
outcell: Cell angles (23,13,12) (deg):     90.0000     90.0000     90.0000
outcell: Cell volume (Ang**3)        :   2089.5570
New_DM. Step:    13
Re-using DM from previous geometry...
Re-using DM without extrapolation (not allowed)
Density Matrix sparsity pattern changed.

siesta: iscf   Eharris(eV)      E_KS(eV)   FreeEng(eV)   dDmax  Ef(eV)
siesta:    1   -15912.2342   -15912.1681   -15912.1786  0.0061 -4.9672
siesta:    2   -15913.6011   -15912.0713   -15912.0825  0.0653 -4.7663
siesta:    3   -15912.2242   -15912.1696   -15912.1824  0.0055 -4.9810
siesta:    4   -15912.2223   -15912.1715   -15912.1813  0.0054 -4.9772
siesta:    5   -15912.2208   -15912.1873   -15912.1975  0.0035 -4.9694
siesta:    6   -15912.2221   -15912.2010   -15912.2114  0.0031 -4.9680
siesta:    7   -15912.2210   -15912.2124   -15912.2228  0.0017 -4.9747
siesta:    8   -15912.2205   -15912.2151   -15912.2256  0.0005 -4.9730
siesta:    9   -15912.2204   -15912.2172   -15912.2276  0.0003 -4.9729
siesta:   10   -15912.2204   -15912.2176   -15912.2280  0.0002 -4.9729
siesta:   11   -15912.2204   -15912.2182   -15912.2286  0.0001 -4.9731
siesta:   12   -15912.2204   -15912.2190   -15912.2294  0.0001 -4.9729

siesta: E_KS(eV) =           -15912.2194

siesta: Atomic forces (eV/Ang):
----------------------------------------
   Tot   -0.006942   -0.000000    0.058200
----------------------------------------
   Max    0.248067
   Res    0.096441    sqrt( Sum f_i^2 / 3N )
----------------------------------------
   Max    0.248067    constrained

Stress-tensor-Voigt (kbar):      -25.75      -40.25      -10.82        0.00       -0.00        0.20
(Free)E + p*V (eV/cell)   -15878.8360
Target enthalpy (eV/cell)   -15912.2298

* Maximum dynamic memory allocated =   844 MB

siesta:                 ==============================
                            Begin CG move =     13
                        ==============================

superc: Internal auxiliary supercell:     6 x     2 x     2  =      24
superc: Number of atoms, orbitals, and projectors:   1728  22944  27648

outcell: Unit cell vectors (Ang):
        4.947600    0.000000    0.000000
        0.000000   16.893500    0.000000
        0.000000    0.000000   25.000000

outcell: Cell vector modules (Ang)   :    4.947600   16.893500   25.000000
outcell: Cell angles (23,13,12) (deg):     90.0000     90.0000     90.0000
outcell: Cell volume (Ang**3)        :   2089.5570
New_DM. Step:    14
Re-using DM from previous geometry...
Re-using DM without extrapolation (not allowed)
Density Matrix sparsity pattern changed.

siesta: iscf   Eharris(eV)      E_KS(eV)   FreeEng(eV)   dDmax  Ef(eV)
siesta:    1   -15912.2725   -15912.2260   -15912.2364  0.0097 -4.9821
siesta:    2   -15916.7288   -15911.7921   -15911.8009  0.1439 -4.6350
siesta:    3   -15912.2335   -15912.2082   -15912.2485  0.0087 -4.9748
siesta:    4   -15912.2316   -15912.2063   -15912.2167  0.0082 -4.9751
siesta:    5   -15912.2308   -15912.2007   -15912.2110  0.0051 -4.9698
siesta:    6   -15912.2315   -15912.2024   -15912.2128  0.0048 -4.9722
siesta:    7   -15912.2289   -15912.2131   -15912.2235  0.0021 -4.9775
siesta:    8   -15912.2280   -15912.2183   -15912.2287  0.0007 -4.9740
siesta:    9   -15912.2277   -15912.2232   -15912.2336  0.0003 -4.9735
siesta:   10   -15912.2277   -15912.2242   -15912.2346  0.0002 -4.9741
siesta:   11   -15912.2276   -15912.2250   -15912.2354  0.0001 -4.9742
siesta:   12   -15912.2276   -15912.2264   -15912.2368  0.0001 -4.9740
siesta:   13   -15912.2276   -15912.2269   -15912.2373  0.0001 -4.9739
siesta:   14   -15912.2276   -15912.2274   -15912.2378  0.0000 -4.9737

siesta: E_KS(eV) =           -15912.2275

siesta: Atomic forces (eV/Ang):
----------------------------------------
   Tot    0.049195   -0.000000    0.097337
----------------------------------------
   Max    0.381334
   Res    0.176256    sqrt( Sum f_i^2 / 3N )
----------------------------------------
   Max    0.381334    constrained

Stress-tensor-Voigt (kbar):      -28.33      -39.41       -6.92        0.00       -0.00        0.33
(Free)E + p*V (eV/cell)   -15879.7777
Target enthalpy (eV/cell)   -15912.2379

* Maximum dynamic memory allocated =   844 MB

siesta:                 ==============================
                            Begin CG move =     14
                        ==============================

superc: Internal auxiliary supercell:     6 x     2 x     2  =      24
superc: Number of atoms, orbitals, and projectors:   1728  22944  27648

outcell: Unit cell vectors (Ang):
        4.947600    0.000000    0.000000
        0.000000   16.893500    0.000000
        0.000000    0.000000   25.000000

outcell: Cell vector modules (Ang)   :    4.947600   16.893500   25.000000
outcell: Cell angles (23,13,12) (deg):     90.0000     90.0000     90.0000
outcell: Cell volume (Ang**3)        :   2089.5570
New_DM. Step:    15
Re-using DM from previous geometry...
Re-using DM without extrapolation (not allowed)
Density Matrix sparsity pattern changed.

siesta: iscf   Eharris(eV)      E_KS(eV)   FreeEng(eV)   dDmax  Ef(eV)
siesta:    1   -15912.2463   -15912.2229   -15912.2333  0.0070 -4.9792
siesta:    2   -15912.9377   -15912.1604   -15912.1691  0.0478 -5.3593
siesta:    3   -15912.2383   -15912.2217   -15912.2333  0.0059 -4.9656
siesta:    4   -15912.2372   -15912.2225   -15912.2333  0.0059 -4.9698
siesta:    5   -15912.2369   -15912.2258   -15912.2364  0.0036 -4.9724
siesta:    6   -15912.2377   -15912.2301   -15912.2407  0.0022 -4.9771
siesta:    7   -15912.2369   -15912.2329   -15912.2432  0.0009 -4.9720
siesta:    8   -15912.2367   -15912.2337   -15912.2441  0.0003 -4.9734
siesta:    9   -15912.2366   -15912.2343   -15912.2447  0.0002 -4.9737
siesta:   10   -15912.2366   -15912.2349   -15912.2453  0.0001 -4.9734
siesta:   11   -15912.2366   -15912.2353   -15912.2457  0.0001 -4.9733

siesta: E_KS(eV) =           -15912.2358

siesta: Atomic forces (eV/Ang):
----------------------------------------
   Tot    0.011393    0.000000    0.044332
----------------------------------------
   Max    0.322004
   Res    0.136153    sqrt( Sum f_i^2 / 3N )
----------------------------------------
   Max    0.322004    constrained

Stress-tensor-Voigt (kbar):      -27.19      -39.74       -8.56       -0.00        0.00        0.25
(Free)E + p*V (eV/cell)   -15879.4288
Target enthalpy (eV/cell)   -15912.2462

cgvc: Finished line minimization    5.  Mean atomic displacement =    0.0607

* Maximum dynamic memory allocated =   845 MB

siesta:                 ==============================
                            Begin CG move =     15
                        ==============================

superc: Internal auxiliary supercell:     6 x     2 x     2  =      24
superc: Number of atoms, orbitals, and projectors:   1728  22944  27648

outcell: Unit cell vectors (Ang):
        4.947600    0.000000    0.000000
        0.000000   16.893500    0.000000
        0.000000    0.000000   25.000000

outcell: Cell vector modules (Ang)   :    4.947600   16.893500   25.000000
outcell: Cell angles (23,13,12) (deg):     90.0000     90.0000     90.0000
outcell: Cell volume (Ang**3)        :   2089.5570
New_DM. Step:    16
Re-using DM from previous geometry...
Re-using DM without extrapolation (not allowed)
Density Matrix sparsity pattern changed.

siesta: iscf   Eharris(eV)      E_KS(eV)   FreeEng(eV)   dDmax  Ef(eV)
siesta:    1   -15912.1268   -15911.3157   -15911.3261  0.0176 -5.0164
siesta:    2   -15920.3376   -15911.3923   -15911.4002  0.2002 -4.6896
siesta:    3   -15912.0685   -15911.3518   -15911.3840  0.0155 -4.9973
siesta:    4   -15912.0612   -15911.4203   -15911.4308  0.0125 -5.0081
siesta:    5   -15912.0596   -15911.6424   -15911.6507  0.0047 -5.0121
siesta:    6   -15912.0689   -15911.7832   -15911.7931  0.0043 -5.0149
siesta:    7   -15912.0554   -15911.8631   -15911.8731  0.0021 -5.0112
siesta:    8   -15912.0546   -15911.8915   -15911.9013  0.0017 -5.0118
siesta:    9   -15912.0545   -15911.9210   -15911.9309  0.0015 -5.0141
siesta:   10   -15912.0545   -15911.9376   -15911.9472  0.0011 -5.0141
siesta:   11   -15912.0545   -15912.0130   -15912.0226  0.0005 -5.0135
siesta:   12   -15912.0544   -15912.0340   -15912.0435  0.0004 -5.0132
siesta:   13   -15912.0544   -15912.0451   -15912.0547  0.0003 -5.0138
siesta:   14   -15912.0545   -15912.0506   -15912.0601  0.0002 -5.0139
siesta:   15   -15912.0545   -15912.0564   -15912.0659  0.0001 -5.0137
siesta:   16   -15912.0545   -15912.0545   -15912.0639  0.0001 -5.0136

siesta: E_KS(eV) =           -15912.0542

siesta: Atomic forces (eV/Ang):
----------------------------------------
   Tot    0.018461   -0.000000   -0.023877
----------------------------------------
   Max    1.485147
   Res    0.491296    sqrt( Sum f_i^2 / 3N )
----------------------------------------
   Max    1.485147    constrained

Stress-tensor-Voigt (kbar):      -25.26      -41.99       -3.57        0.00        0.00        0.15
(Free)E + p*V (eV/cell)   -15881.2749
Target enthalpy (eV/cell)   -15912.0637

* Maximum dynamic memory allocated =   845 MB

siesta:                 ==============================
                            Begin CG move =     16
                        ==============================

superc: Internal auxiliary supercell:     6 x     2 x     2  =      24
superc: Number of atoms, orbitals, and projectors:   1728  22944  27648

outcell: Unit cell vectors (Ang):
        4.947600    0.000000    0.000000
        0.000000   16.893500    0.000000
        0.000000    0.000000   25.000000

outcell: Cell vector modules (Ang)   :    4.947600   16.893500   25.000000
outcell: Cell angles (23,13,12) (deg):     90.0000     90.0000     90.0000
outcell: Cell volume (Ang**3)        :   2089.5570
New_DM. Step:    17
Re-using DM from previous geometry...
Re-using DM without extrapolation (not allowed)
Density Matrix sparsity pattern changed.

siesta: iscf   Eharris(eV)      E_KS(eV)   FreeEng(eV)   dDmax  Ef(eV)
siesta:    1   -15912.3166   -15912.7148   -15912.7243  0.0155 -5.0139
siesta:    2   -15915.7900   -15911.9741   -15911.9776  0.1940 -5.4827
siesta:    3   -15912.2753   -15912.6111   -15912.6417  0.0129 -4.9944
siesta:    4   -15912.2763   -15912.4657   -15912.4748  0.0091 -4.9766
siesta:    5   -15912.2807   -15912.3367   -15912.3476  0.0049 -4.9932
siesta:    6   -15912.2766   -15912.1682   -15912.1752  0.0047 -4.9849
siesta:    7   -15912.2727   -15912.1828   -15912.1925  0.0028 -4.9904
siesta:    8   -15912.2705   -15912.1939   -15912.2032  0.0017 -4.9889
siesta:    9   -15912.2701   -15912.2067   -15912.2164  0.0013 -4.9868
siesta:   10   -15912.2696   -15912.2294   -15912.2392  0.0006 -4.9841
siesta:   11   -15912.2697   -15912.2398   -15912.2497  0.0006 -4.9846
siesta:   12   -15912.2696   -15912.2578   -15912.2677  0.0003 -4.9849
siesta:   13   -15912.2696   -15912.2637   -15912.2736  0.0002 -4.9852
siesta:   14   -15912.2696   -15912.2679   -15912.2778  0.0001 -4.9850

siesta: E_KS(eV) =           -15912.2706

siesta: Atomic forces (eV/Ang):
----------------------------------------
   Tot    0.007744   -0.000000    0.100878
----------------------------------------
   Max    0.228598
   Res    0.093557    sqrt( Sum f_i^2 / 3N )
----------------------------------------
   Max    0.228598    constrained

Stress-tensor-Voigt (kbar):      -26.32      -40.09       -7.16       -0.00        0.00        0.24
(Free)E + p*V (eV/cell)   -15880.2939
Target enthalpy (eV/cell)   -15912.2805

cgvc: Finished line minimization    6.  Mean atomic displacement =    0.0171

* Maximum dynamic memory allocated =   846 MB

siesta:                 ==============================
                            Begin CG move =     17
                        ==============================

superc: Internal auxiliary supercell:     6 x     2 x     2  =      24
superc: Number of atoms, orbitals, and projectors:   1728  22944  27648

outcell: Unit cell vectors (Ang):
        4.947600    0.000000    0.000000
        0.000000   16.893500    0.000000
        0.000000    0.000000   25.000000

outcell: Cell vector modules (Ang)   :    4.947600   16.893500   25.000000
outcell: Cell angles (23,13,12) (deg):     90.0000     90.0000     90.0000
outcell: Cell volume (Ang**3)        :   2089.5570
New_DM. Step:    18
Re-using DM from previous geometry...
Re-using DM without extrapolation (not allowed)
Density Matrix sparsity pattern changed.

siesta: iscf   Eharris(eV)      E_KS(eV)   FreeEng(eV)   dDmax  Ef(eV)
siesta:    1   -15912.3157   -15911.6531   -15911.6630  0.0055 -4.9544
siesta:    2   -15913.0545   -15912.2232   -15912.2345  0.0503 -5.0075
siesta:    3   -15912.3105   -15911.7541   -15911.7659  0.0044 -4.9836
siesta:    4   -15912.3085   -15911.7681   -15911.7780  0.0043 -4.9783
siesta:    5   -15912.3087   -15912.0086   -15912.0189  0.0025 -4.9892
siesta:    6   -15912.3100   -15912.1788   -15912.1889  0.0024 -4.9918
siesta:    7   -15912.3084   -15912.2918   -15912.3018  0.0009 -4.9807
siesta:    8   -15912.3076   -15912.3033   -15912.3135  0.0003 -4.9799
siesta:    9   -15912.3075   -15912.3044   -15912.3148  0.0002 -4.9799
siesta:   10   -15912.3075   -15912.3046   -15912.3150  0.0002 -4.9802
siesta:   11   -15912.3075   -15912.3048   -15912.3152  0.0001 -4.9797

siesta: E_KS(eV) =           -15912.3054

siesta: Atomic forces (eV/Ang):
----------------------------------------
   Tot   -0.067365   -0.000000    0.045800
----------------------------------------
   Max    0.244576
   Res    0.088840    sqrt( Sum f_i^2 / 3N )
----------------------------------------
   Max    0.244576    constrained

Stress-tensor-Voigt (kbar):      -24.52      -39.10       -6.26       -0.00        0.00        0.13
(Free)E + p*V (eV/cell)   -15881.9390
Target enthalpy (eV/cell)   -15912.3158

* Maximum dynamic memory allocated =   848 MB

siesta:                 ==============================
                            Begin CG move =     18
                        ==============================

superc: Internal auxiliary supercell:     6 x     2 x     2  =      24
superc: Number of atoms, orbitals, and projectors:   1728  22944  27648

outcell: Unit cell vectors (Ang):
        4.947600    0.000000    0.000000
        0.000000   16.893500    0.000000
        0.000000    0.000000   25.000000

outcell: Cell vector modules (Ang)   :    4.947600   16.893500   25.000000
outcell: Cell angles (23,13,12) (deg):     90.0000     90.0000     90.0000
outcell: Cell volume (Ang**3)        :   2089.5570
New_DM. Step:    19
Re-using DM from previous geometry...
Re-using DM without extrapolation (not allowed)
Density Matrix sparsity pattern changed.

siesta: iscf   Eharris(eV)      E_KS(eV)   FreeEng(eV)   dDmax  Ef(eV)
siesta:    1   -15912.3303   -15911.2985   -15911.3089  0.0089 -4.9491
siesta:    2   -15914.0820   -15912.1069   -15912.1173  0.0879 -4.8966
siesta:    3   -15912.3086   -15911.4228   -15911.4558  0.0074 -4.9692
siesta:    4   -15912.3070   -15911.4826   -15911.4952  0.0068 -4.9714
siesta:    5   -15912.3099   -15911.9724   -15911.9850  0.0044 -4.9946
siesta:    6   -15912.3074   -15912.1533   -15912.1660  0.0020 -4.9815
siesta:    7   -15912.3065   -15912.2663   -15912.2790  0.0013 -4.9739
siesta:    8   -15912.3054   -15912.2861   -15912.2988  0.0005 -4.9739
siesta:    9   -15912.3052   -15912.2897   -15912.3023  0.0004 -4.9746
siesta:   10   -15912.3051   -15912.2922   -15912.3047  0.0003 -4.9747
siesta:   11   -15912.3051   -15912.2949   -15912.3074  0.0002 -4.9742
siesta:   12   -15912.3051   -15912.3003   -15912.3128  0.0002 -4.9742
siesta:   13   -15912.3051   -15912.3038   -15912.3164  0.0001 -4.9744

siesta: E_KS(eV) =           -15912.3060

siesta: Atomic forces (eV/Ang):
----------------------------------------
   Tot   -0.196480   -0.000000   -0.026002
----------------------------------------
   Max    0.709263
   Res    0.200430    sqrt( Sum f_i^2 / 3N )
----------------------------------------
   Max    0.709263    constrained

Stress-tensor-Voigt (kbar):      -22.01      -37.64       -4.72        0.00       -0.00       -0.02
(Free)E + p*V (eV/cell)   -15884.3365
Target enthalpy (eV/cell)   -15912.3186

* Maximum dynamic memory allocated =   848 MB

siesta:                 ==============================
                            Begin CG move =     19
                        ==============================

superc: Internal auxiliary supercell:     6 x     2 x     2  =      24
superc: Number of atoms, orbitals, and projectors:   1728  22944  27648

outcell: Unit cell vectors (Ang):
        4.947600    0.000000    0.000000
        0.000000   16.893500    0.000000
        0.000000    0.000000   25.000000

outcell: Cell vector modules (Ang)   :    4.947600   16.893500   25.000000
outcell: Cell angles (23,13,12) (deg):     90.0000     90.0000     90.0000
outcell: Cell volume (Ang**3)        :   2089.5570
New_DM. Step:    20
Re-using DM from previous geometry...
Re-using DM without extrapolation (not allowed)
Density Matrix sparsity pattern changed.

siesta: iscf   Eharris(eV)      E_KS(eV)   FreeEng(eV)   dDmax  Ef(eV)
siesta:    1   -15912.3214   -15912.8067   -15912.8192  0.0071 -4.9983
siesta:    2   -15912.6646   -15912.2761   -15912.2867  0.0314 -5.1727
siesta:    3   -15912.3180   -15912.7061   -15912.7135  0.0056 -4.9680
siesta:    4   -15912.3164   -15912.7066   -15912.7181  0.0056 -4.9751
siesta:    5   -15912.3170   -15912.5158   -15912.5271  0.0029 -4.9635
siesta:    6   -15912.3170   -15912.3830   -15912.3944  0.0018 -4.9669
siesta:    7   -15912.3162   -15912.3173   -15912.3287  0.0006 -4.9746
siesta:    8   -15912.3159   -15912.3128   -15912.3241  0.0003 -4.9768
[...]
   Max    0.011345    constrained

Stress-tensor-Voigt (kbar):      -23.79      -39.63       -0.24       -0.00        0.00        0.01
(Free)E + p*V (eV/cell)   -15885.1482
Target enthalpy (eV/cell)   -15912.8193

* Maximum dynamic memory allocated =   910 MB

siesta:                 ==============================
                            Begin CG move =    174
                        ==============================

superc: Internal auxiliary supercell:     6 x     2 x     2  =      24
superc: Number of atoms, orbitals, and projectors:   1728  22944  27648

outcell: Unit cell vectors (Ang):
        4.947600    0.000000    0.000000
        0.000000   16.893500    0.000000
        0.000000    0.000000   25.000000

outcell: Cell vector modules (Ang)   :    4.947600   16.893500   25.000000
outcell: Cell angles (23,13,12) (deg):     90.0000     90.0000     90.0000
outcell: Cell volume (Ang**3)        :   2089.5570
New_DM. Step:   175
Re-using DM from previous geometry...
Re-using DM without extrapolation (not allowed)
Density Matrix sparsity pattern changed.

siesta: iscf   Eharris(eV)      E_KS(eV)   FreeEng(eV)   dDmax  Ef(eV)
siesta:    1   -15912.8090   -15912.8087   -15912.8191  0.0004 -4.9756
siesta:    2   -15912.8097   -15912.8089   -15912.8192  0.0025 -4.9677
siesta:    3   -15912.8089   -15912.8088   -15912.8192  0.0003 -4.9747
siesta:    4   -15912.8090   -15912.8089   -15912.8192  0.0002 -4.9747
siesta:    5   -15912.8090   -15912.8089   -15912.8193  0.0001 -4.9749

siesta: E_KS(eV) =           -15912.8089

siesta: Atomic forces (eV/Ang):
----------------------------------------
   Tot   -0.037770   -0.001203   -0.015707
----------------------------------------
   Max    0.042641
   Res    0.009257    sqrt( Sum f_i^2 / 3N )
----------------------------------------
   Max    0.042641    constrained

Stress-tensor-Voigt (kbar):      -23.81      -39.61       -0.21       -0.00       -0.00       -0.00
(Free)E + p*V (eV/cell)   -15885.1594
Target enthalpy (eV/cell)   -15912.8193

* Maximum dynamic memory allocated =   910 MB

siesta:                 ==============================
                            Begin CG move =    175
                        ==============================

superc: Internal auxiliary supercell:     6 x     2 x     2  =      24
superc: Number of atoms, orbitals, and projectors:   1728  22944  27648

outcell: Unit cell vectors (Ang):
        4.947600    0.000000    0.000000
        0.000000   16.893500    0.000000
        0.000000    0.000000   25.000000

outcell: Cell vector modules (Ang)   :    4.947600   16.893500   25.000000
outcell: Cell angles (23,13,12) (deg):     90.0000     90.0000     90.0000
outcell: Cell volume (Ang**3)        :   2089.5570
New_DM. Step:   176
Re-using DM from previous geometry...
Re-using DM without extrapolation (not allowed)
Density Matrix sparsity pattern changed.

siesta: iscf   Eharris(eV)      E_KS(eV)   FreeEng(eV)   dDmax  Ef(eV)
siesta:    1   -15912.8090   -15912.8092   -15912.8195  0.0004 -4.9743
siesta:    2   -15912.8099   -15912.8089   -15912.8193  0.0026 -4.9821
siesta:    3   -15912.8090   -15912.8091   -15912.8194  0.0003 -4.9752
siesta:    4   -15912.8090   -15912.8091   -15912.8194  0.0002 -4.9750
siesta:    5   -15912.8090   -15912.8090   -15912.8194  0.0001 -4.9748
siesta:    6   -15912.8090   -15912.8090   -15912.8194  0.0000 -4.9747

siesta: E_KS(eV) =           -15912.8090

siesta: Atomic forces (eV/Ang):
----------------------------------------
   Tot   -0.029810    0.000012   -0.009897
----------------------------------------
   Max    0.011145
   Res    0.002935    sqrt( Sum f_i^2 / 3N )
----------------------------------------
   Max    0.011145    constrained

Stress-tensor-Voigt (kbar):      -23.79      -39.62       -0.24       -0.00        0.00        0.01
(Free)E + p*V (eV/cell)   -15885.1483
Target enthalpy (eV/cell)   -15912.8194

cgvc: Finished line minimization   71.  Mean atomic displacement =    0.0007

* Maximum dynamic memory allocated =   910 MB

siesta:                 ==============================
                            Begin CG move =    176
                        ==============================

superc: Internal auxiliary supercell:     6 x     2 x     2  =      24
superc: Number of atoms, orbitals, and projectors:   1728  22944  27648

outcell: Unit cell vectors (Ang):
        4.947600    0.000000    0.000000
        0.000000   16.893500    0.000000
        0.000000    0.000000   25.000000

outcell: Cell vector modules (Ang)   :    4.947600   16.893500   25.000000
outcell: Cell angles (23,13,12) (deg):     90.0000     90.0000     90.0000
outcell: Cell volume (Ang**3)        :   2089.5570
New_DM. Step:   177
Re-using DM from previous geometry...
Re-using DM without extrapolation (not allowed)
Density Matrix sparsity pattern changed.

siesta: iscf   Eharris(eV)      E_KS(eV)   FreeEng(eV)   dDmax  Ef(eV)
siesta:    1   -15912.8090   -15912.8062   -15912.8166  0.0003 -4.9751
siesta:    2   -15912.8092   -15912.8090   -15912.8194  0.0008 -4.9747
siesta:    3   -15912.8090   -15912.8072   -15912.8175  0.0002 -4.9750
siesta:    4   -15912.8090   -15912.8087   -15912.8191  0.0001 -4.9752
siesta:    5   -15912.8090   -15912.8090   -15912.8193  0.0000 -4.9752

siesta: E_KS(eV) =           -15912.8090

siesta: Atomic forces (eV/Ang):
----------------------------------------
   Tot   -0.038649    0.000277   -0.012351
----------------------------------------
   Max    0.016124
   Res    0.004125    sqrt( Sum f_i^2 / 3N )
----------------------------------------
   Max    0.016124    constrained

Stress-tensor-Voigt (kbar):      -23.78      -39.62       -0.22       -0.00        0.00        0.00
(Free)E + p*V (eV/cell)   -15885.1595
Target enthalpy (eV/cell)   -15912.8194

* Maximum dynamic memory allocated =   910 MB

siesta:                 ==============================
                            Begin CG move =    177
                        ==============================

superc: Internal auxiliary supercell:     6 x     2 x     2  =      24
superc: Number of atoms, orbitals, and projectors:   1728  22944  27648

outcell: Unit cell vectors (Ang):
        4.947600    0.000000    0.000000
        0.000000   16.893500    0.000000
        0.000000    0.000000   25.000000

outcell: Cell vector modules (Ang)   :    4.947600   16.893500   25.000000
outcell: Cell angles (23,13,12) (deg):     90.0000     90.0000     90.0000
outcell: Cell volume (Ang**3)        :   2089.5570
New_DM. Step:   178
Re-using DM from previous geometry...
Re-using DM without extrapolation (not allowed)
Density Matrix sparsity pattern changed.

siesta: iscf   Eharris(eV)      E_KS(eV)   FreeEng(eV)   dDmax  Ef(eV)
siesta:    1   -15912.8090   -15912.8096   -15912.8200  0.0001 -4.9751

siesta: E_KS(eV) =           -15912.8090

siesta: Atomic forces (eV/Ang):
----------------------------------------
   Tot   -0.038938    0.001510   -0.010534
----------------------------------------
   Max    0.011695
   Res    0.003216    sqrt( Sum f_i^2 / 3N )
----------------------------------------
   Max    0.011695    constrained

Stress-tensor-Voigt (kbar):      -23.77      -39.61       -0.23       -0.00       -0.00        0.00
(Free)E + p*V (eV/cell)   -15885.1668
Target enthalpy (eV/cell)   -15912.8194

cgvc: Finished line minimization   72.  Mean atomic displacement =    0.0005

* Maximum dynamic memory allocated =   910 MB

siesta:                 ==============================
                            Begin CG move =    178
                        ==============================

superc: Internal auxiliary supercell:     6 x     2 x     2  =      24
superc: Number of atoms, orbitals, and projectors:   1728  22944  27648

outcell: Unit cell vectors (Ang):
        4.947600    0.000000    0.000000
        0.000000   16.893500    0.000000
        0.000000    0.000000   25.000000

outcell: Cell vector modules (Ang)   :    4.947600   16.893500   25.000000
outcell: Cell angles (23,13,12) (deg):     90.0000     90.0000     90.0000
outcell: Cell volume (Ang**3)        :   2089.5570
New_DM. Step:   179
Re-using DM from previous geometry...
Re-using DM without extrapolation (not allowed)
Density Matrix sparsity pattern changed.

siesta: iscf   Eharris(eV)      E_KS(eV)   FreeEng(eV)   dDmax  Ef(eV)
siesta:    1   -15912.8091   -15912.8066   -15912.8170  0.0003 -4.9752
siesta:    2   -15912.8096   -15912.8090   -15912.8194  0.0013 -4.9736
siesta:    3   -15912.8091   -15912.8070   -15912.8174  0.0001 -4.9750
siesta:    4   -15912.8091   -15912.8083   -15912.8187  0.0001 -4.9751

siesta: E_KS(eV) =           -15912.8087

siesta: Atomic forces (eV/Ang):
----------------------------------------
   Tot   -0.042022   -0.001339   -0.014765
----------------------------------------
   Max    0.009340
   Res    0.002446    sqrt( Sum f_i^2 / 3N )
----------------------------------------
   Max    0.009340    constrained

Stress-tensor-Voigt (kbar):      -23.78      -39.61       -0.21        0.00       -0.00       -0.01
(Free)E + p*V (eV/cell)   -15885.1685
Target enthalpy (eV/cell)   -15912.8191

* Maximum dynamic memory allocated =   910 MB

outcoor: Relaxed atomic coordinates (fractional):           
    0.32688862    0.05001778    0.09481983   1       1  Ti
    0.32676347    0.24999934    0.09478029   1       2  Ti
    0.32687830    0.44998133    0.09481885   1       3  Ti
    0.32715609    0.64997495    0.09493264   1       4  Ti
    0.32716925    0.85002124    0.09493348   1       5  Ti
    0.82689479    0.14999040   -0.01464730   1       6  Ti
    0.82689871    0.35000852   -0.01464995   1       7  Ti
    0.82709379    0.55001302   -0.01455950   1       8  Ti
    0.82724021    0.74999886   -0.01450172   1       9  Ti
    0.82710060    0.94998220   -0.01455744   1      10  Ti
    0.61585586    0.04995196    0.92389073   2      11  S
    0.61561427    0.25000273    0.92389664   2      12  S
    0.61581975    0.45004773    0.92389561   2      13  S
    0.61601937    0.65006164    0.92397856   2      14  S
    0.61600285    0.84994072    0.92398528   2      15  S
    0.53808524    0.15004102    0.15647305   2      16  S
    0.53808728    0.34996490    0.15647133   2      17  S
    0.53832701    0.54992046    0.15653218   2      18  S
    0.53919071    0.75000138    0.15640726   2      19  S
    0.53832667    0.95008049    0.15653485   2      20  S
    0.82681294    0.05002827    0.05806143   2      21  S
    0.82679655    0.25000138    0.05801845   2      22  S
    0.82681025    0.44997000    0.05805804   2      23  S
    0.82714759    0.64998112    0.05817034   2      24  S
    0.82716095    0.85001635    0.05817213   2      25  S
    0.32679355    0.14999054    0.02227576   2      26  S
    0.32679861    0.35000806    0.02227587   2      27  S
    0.32696534    0.55002831    0.02234877   2      28  S
    0.32701627    0.74999963    0.02242189   2      29  S
    0.32697536    0.94997095    0.02235007   2      30  S
    0.03822569    0.04994494    0.92389644   2      31  S
    0.03796723    0.24999462    0.92378614   2      32  S
    0.03819276    0.45004657    0.92388409   2      33  S
    0.03835407    0.65000819    0.92395680   2      34  S
    0.03833972    0.84998695    0.92395249   2      35  S
    0.11547556    0.15003702    0.15643880   2      36  S
    0.11547580    0.34995955    0.15643912   2      37  S
    0.11572313    0.54987867    0.15653170   2      38  S
    0.11669229    0.74999946    0.15678214   2      39  S
    0.11572474    0.95011742    0.15653197   2      40  S
    0.37036504    0.20822886    0.30907977   3      41  C
    0.37038822    0.45823907    0.30838333   3      42  C
    0.37050030    0.70823034    0.30686153   3      43  C
    0.37044494    0.95822121    0.30788506   3      44  C
    0.87037602    0.20823154    0.30903171   3      45  C
    0.87039238    0.45823444    0.30832395   3      46  C
    0.87048855    0.70822781    0.30679899   3      47  C
    0.87044935    0.95822978    0.30782667   3      48  C
    0.37038599    0.04175995    0.30838332   3      49  C
    0.37037153    0.29177183    0.30908003   3      50  C
    0.37044971    0.54177745    0.30788467   3      51  C
    0.37049709    0.79176868    0.30686164   3      52  C
    0.87039269    0.04176489    0.30832411   3      53  C
    0.87037391    0.29176794    0.30903153   3      54  C
    0.87044974    0.54176997    0.30782646   3      55  C
    0.87048739    0.79176996    0.30679938   3      56  C
    0.12037559    0.08323480    0.30860834   3      57  C
    0.12034844    0.33323284    0.30898083   3      58  C
    0.12047634    0.58323581    0.30757187   3      59  C
    0.12051181    0.83323456    0.30701204   3      60  C
    0.62039908    0.08323576    0.30859120   3      61  C
    0.62038106    0.33323271    0.30896442   3      62  C
    0.62046451    0.58323443    0.30755243   3      63  C
    0.62047563    0.83323564    0.30699054   3      64  C
    0.12034637    0.16676709    0.30898079   3      65  C
    0.12037600    0.41676543    0.30860843   3      66  C
    0.12051360    0.66676470    0.30701194   3      67  C
    0.12047107    0.91676248    0.30757233   3      68  C
    0.62037827    0.16676835    0.30896416   3      69  C
    0.62039774    0.41676420    0.30859120   3      70  C
    0.62047773    0.66676342    0.30699030   3      71  C
    0.62046248    0.91676448    0.30755274   3      72  C

coxmol: Writing XMOL coordinates into file TiS3.xyz                                                        

siesta: Program's energy decomposition (eV):
siesta: Ebs     =     -4240.951984
siesta: Eions   =     23488.662927
siesta: Ena     =      5284.145538
siesta: Ekin    =      7980.722293
siesta: Enl     =       -77.188809
siesta: DEna    =      -110.628764
siesta: DUscf   =        18.357128
siesta: DUext   =         0.000000
siesta: Exc     =     -5519.553201
siesta: eta*DQ  =         0.000000
siesta: Emadel  =         0.000000
siesta: Emeta   =         0.000000
siesta: Emolmec =         0.000000
siesta: Ekinion =         0.000000
siesta: Eharris =    -15912.809067
siesta: Etot    =    -15912.808742
siesta: FreeEng =    -15912.819094

siesta: Final energy (eV):
siesta:  Band Struct. =   -4240.951984
siesta:       Kinetic =    7980.722293
siesta:       Hartree =   67614.980767
siesta:    Ext. field =       0.000000
siesta:   Exch.-corr. =   -5519.553201
siesta:  Ion-electron = -142462.091963
siesta:       Ion-ion =   56473.133362
siesta:       Ekinion =       0.000000
siesta:         Total =  -15912.808742

siesta: Stress tensor (static) (eV/Ang**3):
siesta:    -0.014842    0.000001    0.000000
siesta:     0.000001   -0.024723   -0.000000
siesta:    -0.000004   -0.000000   -0.000133

siesta: Cell volume =       2089.557015 Ang**3

siesta: Pressure (static):
siesta:                Solid            Molecule  Units
siesta:           0.00014412          0.00014424  Ry/Bohr**3
siesta:           0.01323276          0.01324351  eV/Ang**3
siesta:          21.20145085         21.21867680  kBar
(Free)E+ p_basis*V_orbitals  =      -15866.956924
(Free)Eharris+ p_basis*V_orbitals  =      -15866.957680

siesta: Total spin polarization (Qup-Qdown) =   -0.000000

* Maximum dynamic memory allocated : Node    0 =   910 MB
* Maximum dynamic memory allocated : Node    1 =   527 MB
* Maximum dynamic memory allocated : Node    2 =   896 MB
* Maximum dynamic memory allocated : Node    3 =   512 MB

* Maximum memory occured during init_pulay_arrrays            

timer: CPU execution times:
timer:  Routine       Calls   Time/call    Tot.time        %
timer:  siesta            1  518798.137  518798.137   100.00
timer:  Setup             1       0.881       0.881     0.00
timer:  bands             1       0.001       0.001     0.00
timer:  writewave         1       0.002       0.002     0.00
timer:  KSV_init          1       0.000       0.000     0.00
timer:  IterMD          179    2898.100  518759.903    99.99
timer:  hsparse         179       1.044     186.809     0.04
timer:  overlap         179       0.404      72.280     0.01
timer:  IterSCF        1403     342.122  479996.754    92.52
timer:  kinefsm         358       0.423     151.515     0.03
timer:  nlefsm          358      11.631    4163.931     0.80
timer:  DHSCF          1583     108.777  172194.009    33.19
timer:  DHSCF1            1       0.822       0.822     0.00
timer:  DHSCF2          179      63.934   11444.183     2.21
timer:  REORD         14609       0.009     138.000     0.03
timer:  POISON         1762       1.493    2631.539     0.51
timer:  DHSCF3         1583      94.770  150020.711    28.92
timer:  rhoofd         1583      24.358   38559.110     7.43
timer:  cellXC         1583       5.369    8498.339     1.64
timer:  vmat           1582      42.830   67756.289    13.06
timer:  MolMec          358       0.000       0.016     0.00
timer:  diagon         1403     236.184  331365.598    63.87
timer:  c-eigval      22448       6.315  141752.311    27.32
timer:  c-buildHS     22448       0.053    1178.842     0.23
timer:  cdiag         44896       6.338  284557.194    54.85
timer:  cdiag1        44896       0.354   15905.305     3.07
timer:  cdiag2        44896       1.288   57831.600    11.15
timer:  cdiag3        44896       4.491  201633.289    38.87
timer:  cdiag4        44896       0.122    5465.231     1.05
timer:  c-eigvec      22448       6.465  145115.800    27.97
timer:  c-buildD      22448       1.980   44443.840     8.57
timer:  DHSCF4          179      59.509   10652.133     2.05
timer:  dfscf           179      54.327    9724.594     1.87
timer:  overfsm         179       0.373      66.850     0.01
timer:  optical           1       0.000       0.000     0.00
  

elaps: ELAPSED times:
elaps:  Routine       Calls   Time/call    Tot.time        %
elaps:  siesta            1  129976.453  129976.453   100.00
elaps:  Setup             1       0.221       0.221     0.00
elaps:  bands             1       0.000       0.000     0.00
elaps:  writewave         1       0.001       0.001     0.00
elaps:  KSV_init          1       0.000       0.000     0.00
elaps:  IterMD          179     726.072  129966.875    99.99
elaps:  hsparse         179       0.270      48.345     0.04
elaps:  overlap         179       0.103      18.519     0.01
elaps:  IterSCF        1403      85.715  120257.878    92.52
elaps:  kinefsm         358       0.110      39.337     0.03
elaps:  nlefsm          358       2.924    1046.655     0.81
elaps:  DHSCF          1583      28.173   44597.661    34.31
elaps:  DHSCF1            1       0.208       0.208     0.00
elaps:  DHSCF2          179      16.014    2866.521     2.21
elaps:  REORD         14609       0.002      35.059     0.03
elaps:  POISON         1762       0.375     659.995     0.51
elaps:  DHSCF3         1583      23.736   37574.335    28.91
elaps:  rhoofd         1583      10.257   16237.290    12.49
elaps:  cellXC         1583       1.344    2127.434     1.64
elaps:  vmat           1582      10.728   16972.154    13.06
elaps:  MolMec          358       0.000       0.004     0.00
elaps:  diagon         1403      59.186   83037.620    63.89
elaps:  c-eigval      22448       1.582   35517.736    27.33
elaps:  c-buildHS     22448       0.014     304.803     0.23
elaps:  cdiag         44896       1.589   71327.524    54.88
elaps:  cdiag1        44896       0.088    3930.065     3.02
elaps:  cdiag2        44896       0.323   14485.477    11.14
elaps:  cdiag3        44896       1.126   50544.398    38.89
elaps:  cdiag4        44896       0.032    1423.368     1.10
elaps:  c-eigvec      22448       1.622   36405.288    28.01
elaps:  c-buildD      22448       0.494   11088.699     8.53
elaps:  DHSCF4          179      23.108    4136.277     3.18
elaps:  dfscf           179      21.484    3845.596     2.96
elaps:  overfsm         179       0.095      17.032     0.01
elaps:  optical           1       0.000       0.000     0.00
  
>> End of run:  13-NOV-2019   4:11:18
