Siesta Version:                                        siesta-3.1
Architecture  : x86_64-unknown-linux-gnu--unknown
Compiler flags: mpif90 -g -O2
PARALLEL version

* Running on    4 nodes in parallel
>> Start of run:  27-NOV-2019  15:09:16

                           ***********************       
                           *  WELCOME TO SIESTA  *       
                           ***********************       

reinit: Reading from standard input
************************** Dump of input data file ****************************
SystemName TiS3
SystemLabel TiS3
NumberOfAtoms 145
SpinPolarized .true.
NumberOfSpecies 4
%block ChemicalSpeciesLabel
1  22 Ti
2  16 S
3  6 C
4  12 Mg
%endblock ChemicalSpeciesLabel
XC.functional		GGA
XC.authors		PBE
PAO.BasisSize		DZP
PAO.EnergyShift		65 meV
LatticeConstant 1.0 Ang
%block LatticeParameters
9.99358 17.21068 25.00000 90.00000 90.00000 90.00002
%endblock LatticeParameters
AtomicCoordinatesFormat  Fractional
%block AtomicCoordinatesAndAtomicSpecies
0.163663	0.050038	0.094820	1
0.663663	0.050038	0.094820	1
0.163594	0.249991	0.094288	1
0.663594	0.249991	0.094288	1
0.163639	0.449965	0.094369	1
0.663639	0.449965	0.094369	1
0.163751	0.649975	0.094476	1
0.663751	0.649975	0.094476	1
0.163757	0.850033	0.094458	1
0.663757	0.850033	0.094458	1
0.413487	0.149953	0.985900	1
0.913487	0.149953	0.985900	1
0.413487	0.350002	0.985841	1
0.913487	0.350002	0.985841	1
0.413581	0.550011	0.985928	1
0.913581	0.550011	0.985928	1
0.413606	0.750004	0.985969	1
0.913606	0.750004	0.985969	1
0.413590	0.950019	0.985977	1
0.913590	0.950019	0.985977	1
0.309200	0.049948	0.924832	2
0.809200	0.049948	0.924832	2
0.309101	0.249980	0.924814	2
0.809101	0.249980	0.924814	2
0.309191	0.450056	0.924804	2
0.809191	0.450056	0.924804	2
0.309242	0.650033	0.924876	2
0.809242	0.650033	0.924876	2
0.309238	0.849994	0.924901	2
0.809238	0.849994	0.924901	2
0.268131	0.150193	0.155651	2
0.768131	0.150193	0.155651	2
0.268102	0.349954	0.155505	2
0.768102	0.349954	0.155505	2
0.268243	0.549888	0.155577	2
0.768243	0.549888	0.155577	2
0.268717	0.750000	0.155444	2
0.768717	0.750000	0.155444	2
0.268277	0.949997	0.155722	2
0.768277	0.949997	0.155722	2
0.413550	0.050028	0.057944	2
0.913550	0.050028	0.057944	2
0.413482	0.249997	0.057766	2
0.913482	0.249997	0.057766	2
0.413530	0.449968	0.057811	2
0.913530	0.449968	0.057811	2
0.413666	0.649979	0.057895	2
0.913666	0.649979	0.057895	2
0.413670	0.850024	0.057901	2
0.913670	0.850024	0.057901	2
0.163536	0.149839	0.022660	2
0.663536	0.149839	0.022660	2
0.163511	0.350017	0.022523	2
0.663511	0.350017	0.022523	2
0.163632	0.550030	0.022628	2
0.663632	0.550030	0.022628	2
0.163640	0.750000	0.022689	2
0.663640	0.750000	0.022689	2
0.163646	0.950106	0.022753	2
0.663646	0.950106	0.022753	2
0.018186	0.049938	0.924919	2
0.518186	0.049938	0.924919	2
0.018080	0.249965	0.924825	2
0.518080	0.249965	0.924825	2
0.018170	0.450049	0.924876	2
0.518170	0.450049	0.924876	2
0.018230	0.650037	0.924945	2
0.518230	0.650037	0.924945	2
0.018226	0.849983	0.924966	2
0.518226	0.849983	0.924966	2
0.058956	0.150189	0.155585	2
0.558956	0.150189	0.155585	2
0.058987	0.349927	0.155453	2
0.558987	0.349927	0.155453	2
0.059127	0.549875	0.155568	2
0.559127	0.549875	0.155568	2
0.059611	0.749998	0.155813	2
0.559611	0.749998	0.155813	2
0.059104	0.949995	0.155695	2
0.559104	0.949995	0.155695	2
0.185211	0.208316	0.284927	3
0.685211	0.208316	0.284927	3
0.185215	0.458326	0.284927	3
0.685215	0.458326	0.284927	3
0.185211	0.708317	0.284927	3
0.685211	0.708317	0.284927	3
0.185211	0.958312	0.284927	3
0.685211	0.958312	0.284927	3
0.435211	0.208318	0.284927	3
0.935211	0.208318	0.284927	3
0.435213	0.458325	0.284927	3
0.935213	0.458325	0.284927	3
0.435210	0.708318	0.284927	3
0.935210	0.708318	0.284927	3
0.435210	0.958315	0.284927	3
0.935210	0.958315	0.284927	3
0.185214	0.041673	0.284927	3
0.685214	0.041673	0.284927	3
0.185212	0.291683	0.284927	3
0.685212	0.291683	0.284927	3
0.185212	0.541687	0.284927	3
0.685212	0.541687	0.284927	3
0.185211	0.791681	0.284927	3
0.685211	0.791681	0.284927	3
0.435212	0.041674	0.284927	3
0.935212	0.041674	0.284927	3
0.435211	0.291682	0.284927	3
0.935211	0.291682	0.284927	3
0.435212	0.541685	0.284927	3
0.935212	0.541685	0.284927	3
0.435210	0.791680	0.284927	3
0.935210	0.791680	0.284927	3
0.060212	0.083313	0.284927	3
0.560212	0.083313	0.284927	3
0.060210	0.333321	0.284927	3
0.560210	0.333321	0.284927	3
0.060213	0.583319	0.284927	3
0.560213	0.583319	0.284927	3
0.060212	0.833315	0.284927	3
0.560212	0.833315	0.284927	3
0.310214	0.083313	0.284927	3
0.810214	0.083313	0.284927	3
0.310216	0.333320	0.284927	3
0.810216	0.333320	0.284927	3
0.310215	0.583318	0.284927	3
0.810215	0.583318	0.284927	3
0.310212	0.833316	0.284927	3
0.810212	0.833316	0.284927	3
0.060210	0.166679	0.284927	3
0.560210	0.166679	0.284927	3
0.060213	0.416687	0.284927	3
0.560213	0.416687	0.284927	3
0.060213	0.666684	0.284927	3
0.560213	0.666684	0.284927	3
0.060212	0.916680	0.284927	3
0.560212	0.916680	0.284927	3
0.310216	0.166679	0.284927	3
0.810216	0.166679	0.284927	3
0.310216	0.416686	0.284927	3
0.810216	0.416686	0.284927	3
0.310212	0.666683	0.284927	3
0.810212	0.666683	0.284927	3
0.310214	0.916681	0.284927	3
0.810214	0.916681	0.284927	3
0.41355	0.05003	0.208691566	4
%endblock AtomicCoordinatesAndAtomicSpecies
DM.MixingWeight		0.05
DM.NumberPulay		8
DM.Tolerance		1.d-4
MaxSCFIterations		300
MD.TypeOfRun		CG
MD.VariableCell		.true.
MD.MaxForceTol		0.01 eV/Ang
MD.NumCGsteps		1000
#MD.MaxCGDispl		0.15 Ang
%block GeometryConstraints
 stress 3 4 5
 position  1 0.0  0.0  1.0
%endblock GeometryConstraints
MeshCutoff		300.0 Ry
WriteCoorXmol		yes
%block kgrid_Monkhorst_Pack
   3   0   0  0.0
   0   2   0  0.0
   0   0   1  0.0
%endblock Kgrid_Monkhorst_Pack
UseSaveData           .true.
SaveRho                 .true.       # Write valence pseudocharge at the mesh
************************** End of input data file *****************************

reinit: -----------------------------------------------------------------------
reinit: System Name: TiS3
reinit: -----------------------------------------------------------------------
reinit: System Label: TiS3                                                        
reinit: -----------------------------------------------------------------------

initatom: Reading input for the pseudopotentials and atomic orbitals ----------
 Species number:            1  Label: Ti Atomic number:          22
 Species number:            2  Label: S Atomic number:          16
 Species number:            3  Label: C Atomic number:           6
 Species number:            4  Label: Mg Atomic number:          12
Ground state valence configuration:   4s02  3d02
Reading pseudopotential information in formatted form from Ti.psf

Valence configuration for pseudopotential generation:
4s( 2.00) rc: 2.71
4p( 0.00) rc: 2.71
3d( 2.00) rc: 2.45
4f( 0.00) rc: 2.45
Ground state valence configuration:   3s02  3p04
Reading pseudopotential information in formatted form from S.psf

Valence configuration for pseudopotential generation:
3s( 2.00) rc: 1.61
3p( 4.00) rc: 1.76
3d( 0.00) rc: 1.92
4f( 0.00) rc: 1.92
Ground state valence configuration:   2s02  2p02
Reading pseudopotential information in formatted form from C.psf

Valence configuration for pseudopotential generation:
2s( 2.00) rc: 1.54
2p( 2.00) rc: 1.54
3d( 0.00) rc: 1.54
4f( 0.00) rc: 1.54
Ground state valence configuration:   3s02
Reading pseudopotential information in formatted form from Mg.psf

Valence configuration for pseudopotential generation:
3s( 2.00) rc: 2.18
3p( 0.00) rc: 2.56
3d( 0.00) rc: 2.56
4f( 0.00) rc: 2.56
For Ti, standard SIESTA heuristics set lmxkb to 3
 (one more than the basis l, including polarization orbitals).
Use PS.lmax or PS.KBprojectors blocks to override.
For S, standard SIESTA heuristics set lmxkb to 3
 (one more than the basis l, including polarization orbitals).
Use PS.lmax or PS.KBprojectors blocks to override.
For C, standard SIESTA heuristics set lmxkb to 3
 (one more than the basis l, including polarization orbitals).
Use PS.lmax or PS.KBprojectors blocks to override.
For Mg, standard SIESTA heuristics set lmxkb to 2
 (one more than the basis l, including polarization orbitals).
Use PS.lmax or PS.KBprojectors blocks to override.

<basis_specs>
===============================================================================
Ti                   Z=  22    Mass=  47.880        Charge= 0.17977+309
Lmxo=2 Lmxkb= 3    BasisType=split      Semic=F
L=0  Nsemic=0  Cnfigmx=4
          n=1  nzeta=2  polorb=1
            splnorm:   0.15000    
               vcte:    0.0000    
               rinn:    0.0000    
                rcs:    0.0000      0.0000    
            lambdas:    1.0000      1.0000    
L=1  Nsemic=0  Cnfigmx=4
L=2  Nsemic=0  Cnfigmx=3
          n=1  nzeta=2  polorb=0
            splnorm:   0.15000    
               vcte:    0.0000    
               rinn:    0.0000    
                rcs:    0.0000      0.0000    
            lambdas:    1.0000      1.0000    
-------------------------------------------------------------------------------
L=0  Nkbl=1  erefs: 0.17977+309
L=1  Nkbl=1  erefs: 0.17977+309
L=2  Nkbl=1  erefs: 0.17977+309
L=3  Nkbl=1  erefs: 0.17977+309
===============================================================================
</basis_specs>

atom: Called for Ti                    (Z =  22)

read_vps: Pseudopotential generation method:
read_vps: ATM3      Troullier-Martins                       
Total valence charge:    4.00000

read_vps: Pseudopotential includes a core correction:
read_vps: Pseudo-core for xc-correction

xc_check: Exchange-correlation functional:
xc_check: GGA Perdew, Burke & Ernzerhof 1996
V l=0 = -2*Zval/r beyond r=  3.2266
V l=1 = -2*Zval/r beyond r=  3.2266
V l=2 = -2*Zval/r beyond r=  3.2266
V l=3 = -2*Zval/r beyond r=  3.2266
All V_l potentials equal beyond r=  2.6749
This should be close to max(r_c) in ps generation
All pots = -2*Zval/r beyond r=  3.2266

VLOCAL1: 99.0% of the norm of Vloc inside      6.067 Ry
VLOCAL1: 99.9% of the norm of Vloc inside     13.826 Ry
atom: Maximum radius for 4*pi*r*r*local-pseudopot. charge    3.18650
atom: Maximum radius for r*vlocal+2*Zval:    2.77713
GHOST: No ghost state for L =  0
GHOST: No ghost state for L =  1
GHOST: No ghost state for L =  2
GHOST: No ghost state for L =  3

KBgen: Kleinman-Bylander projectors: 
   l= 0   rc=  3.656209   el= -0.325100   Ekb=  2.704161   kbcos=  0.283955
   l= 1   rc=  3.748769   el= -0.108822   Ekb=  1.406241   kbcos=  0.273406
   l= 2   rc=  3.267166   el= -0.324546   Ekb= -7.701284   kbcos= -0.636873
   l= 3   rc=  3.990551   el=  0.003060   Ekb= -1.295170   kbcos= -0.013833

KBgen: Total number of  Kleinman-Bylander projectors:   16
atom: -------------------------------------------------------------------------

atom: SANKEY-TYPE ORBITALS:
atom: Selected multiple-zeta basis: split     

SPLIT: Orbitals with angular momentum L= 0

SPLIT: Basis orbitals for state 4s

SPLIT: PAO cut-off radius determined from an
SPLIT: energy shift=  0.004777 Ry

   izeta = 1
                 lambda =    1.000000
                     rc =    8.448122
                 energy =   -0.320243
                kinetic =    0.225933
    potential(screened) =   -0.546176
       potential(ionic) =   -2.398113

   izeta = 2
                 rmatch =    7.181023
              splitnorm =    0.150000
                 energy =   -0.277986
                kinetic =    0.361117
    potential(screened) =   -0.639103
       potential(ionic) =   -2.603312

SPLIT: Orbitals with angular momentum L= 2

SPLIT: Basis orbitals for state 3d

SPLIT: PAO cut-off radius determined from an
SPLIT: energy shift=  0.004777 Ry

   izeta = 1
                 lambda =    1.000000
                     rc =    5.806269
                 energy =   -0.319832
                kinetic =    5.305924
    potential(screened) =   -5.625757
       potential(ionic) =   -8.134583

   izeta = 2
                 rmatch =    3.107819
              splitnorm =    0.150000
                 energy =   -0.130887
                kinetic =    7.291131
    potential(screened) =   -7.422018
       potential(ionic) =  -10.057457

POLgen: Perturbative polarization orbital with L=  1

POLgen: Polarization orbital for state 4s

   izeta = 1
                     rc =    8.448122
                 energy =   -0.098258
                kinetic =    0.420436
    potential(screened) =   -0.518694
       potential(ionic) =   -2.271734
atom: Total number of Sankey-type orbitals: 15

atm_pop: Valence configuration (for local Pseudopot. screening):
 4s( 2.00)                                                            
 4p( 0.00)                                                            
 3d( 2.00)                                                            
Vna: chval, zval:    4.00000   4.00000

Vna:  Cut-off radius for the neutral-atom potential:   8.448122
comcore: Pseudo-core radius Rcore=  4.578782

atom: _________________________________________________________________________

<basis_specs>
===============================================================================
S                    Z=  16    Mass=  32.070        Charge= 0.17977+309
Lmxo=1 Lmxkb= 3    BasisType=split      Semic=F
L=0  Nsemic=0  Cnfigmx=3
          n=1  nzeta=2  polorb=0
            splnorm:   0.15000    
               vcte:    0.0000    
               rinn:    0.0000    
                rcs:    0.0000      0.0000    
            lambdas:    1.0000      1.0000    
L=1  Nsemic=0  Cnfigmx=3
          n=1  nzeta=2  polorb=1
            splnorm:   0.15000    
               vcte:    0.0000    
               rinn:    0.0000    
                rcs:    0.0000      0.0000    
            lambdas:    1.0000      1.0000    
-------------------------------------------------------------------------------
L=0  Nkbl=1  erefs: 0.17977+309
L=1  Nkbl=1  erefs: 0.17977+309
L=2  Nkbl=1  erefs: 0.17977+309
L=3  Nkbl=1  erefs: 0.17977+309
===============================================================================
</basis_specs>

atom: Called for S                     (Z =  16)

read_vps: Pseudopotential generation method:
read_vps: ATM3      Troullier-Martins                       
Total valence charge:    6.00000

read_vps: Pseudopotential includes a core correction:
read_vps: Pseudo-core for xc-correction

xc_check: Exchange-correlation functional:
xc_check: GGA Perdew, Burke & Ernzerhof 1996
V l=0 = -2*Zval/r beyond r=  1.7157
V l=1 = -2*Zval/r beyond r=  1.7813
V l=2 = -2*Zval/r beyond r=  1.8962
V l=3 = -2*Zval/r beyond r=  1.8962
All V_l potentials equal beyond r=  1.8962
This should be close to max(r_c) in ps generation
All pots = -2*Zval/r beyond r=  1.8962

VLOCAL1: 99.0% of the norm of Vloc inside     12.073 Ry
VLOCAL1: 99.9% of the norm of Vloc inside     27.515 Ry
atom: Maximum radius for 4*pi*r*r*local-pseudopot. charge    2.28723
atom: Maximum radius for r*vlocal+2*Zval:    1.99338
GHOST: No ghost state for L =  0
GHOST: No ghost state for L =  1
GHOST: No ghost state for L =  2
GHOST: No ghost state for L =  3

KBgen: Kleinman-Bylander projectors: 
   l= 0   rc=  2.095595   el= -1.260012   Ekb=  7.575815   kbcos=  0.308447
   l= 1   rc=  2.148649   el= -0.516050   Ekb=  2.724996   kbcos=  0.294943
   l= 2   rc=  2.175677   el=  0.001998   Ekb= -2.719245   kbcos= -0.053867
   l= 3   rc=  2.345140   el=  0.003105   Ekb= -0.697074   kbcos= -0.004230

KBgen: Total number of  Kleinman-Bylander projectors:   16
atom: -------------------------------------------------------------------------

atom: SANKEY-TYPE ORBITALS:
atom: Selected multiple-zeta basis: split     

SPLIT: Orbitals with angular momentum L= 0

SPLIT: Basis orbitals for state 3s

SPLIT: PAO cut-off radius determined from an
SPLIT: energy shift=  0.004777 Ry

   izeta = 1
                 lambda =    1.000000
                     rc =    4.842249
                 energy =   -1.255602
                kinetic =    0.842930
    potential(screened) =   -2.098533
       potential(ionic) =   -7.019684

   izeta = 2
                 rmatch =    3.542623
              splitnorm =    0.150000
                 energy =   -1.124633
                kinetic =    1.297137
    potential(screened) =   -2.421770
       potential(ionic) =   -7.574141

SPLIT: Orbitals with angular momentum L= 1

SPLIT: Basis orbitals for state 3p

SPLIT: PAO cut-off radius determined from an
SPLIT: energy shift=  0.004777 Ry

   izeta = 1
                 lambda =    1.000000
                     rc =    6.064098
                 energy =   -0.511517
                kinetic =    1.429029
    potential(screened) =   -1.940546
       potential(ionic) =   -6.510685

   izeta = 2
                 rmatch =    3.964470
              splitnorm =    0.150000
                 energy =   -0.369917
                kinetic =    2.112725
    potential(screened) =   -2.482643
       potential(ionic) =   -7.463487

POLgen: Perturbative polarization orbital with L=  2

POLgen: Polarization orbital for state 3p

   izeta = 1
                     rc =    6.064098
                 energy =    0.629859
                kinetic =    1.964668
    potential(screened) =   -1.334809
       potential(ionic) =   -5.430423
atom: Total number of Sankey-type orbitals: 13

atm_pop: Valence configuration (for local Pseudopot. screening):
 3s( 2.00)                                                            
 3p( 4.00)                                                            
Vna: chval, zval:    6.00000   6.00000

Vna:  Cut-off radius for the neutral-atom potential:   6.064098
comcore: Pseudo-core radius Rcore=  2.496399

atom: _________________________________________________________________________

<basis_specs>
===============================================================================
C                    Z=   6    Mass=  12.010        Charge= 0.17977+309
Lmxo=1 Lmxkb= 3    BasisType=split      Semic=F
L=0  Nsemic=0  Cnfigmx=2
          n=1  nzeta=2  polorb=0
            splnorm:   0.15000    
               vcte:    0.0000    
               rinn:    0.0000    
                rcs:    0.0000      0.0000    
            lambdas:    1.0000      1.0000    
L=1  Nsemic=0  Cnfigmx=2
          n=1  nzeta=2  polorb=1
            splnorm:   0.15000    
               vcte:    0.0000    
               rinn:    0.0000    
                rcs:    0.0000      0.0000    
            lambdas:    1.0000      1.0000    
-------------------------------------------------------------------------------
L=0  Nkbl=1  erefs: 0.17977+309
L=1  Nkbl=1  erefs: 0.17977+309
L=2  Nkbl=1  erefs: 0.17977+309
L=3  Nkbl=1  erefs: 0.17977+309
===============================================================================
</basis_specs>

atom: Called for C                     (Z =   6)

read_vps: Pseudopotential generation method:
read_vps: ATM3      Troullier-Martins                       
Total valence charge:    4.00000

read_vps: Pseudopotential includes a core correction:
read_vps: Pseudo-core for xc-correction

xc_check: Exchange-correlation functional:
xc_check: GGA Perdew, Burke & Ernzerhof 1996
V l=0 = -2*Zval/r beyond r=  1.5227
V l=1 = -2*Zval/r beyond r=  1.5227
V l=2 = -2*Zval/r beyond r=  1.5227
V l=3 = -2*Zval/r beyond r=  1.5038
All V_l potentials equal beyond r=  1.5227
This should be close to max(r_c) in ps generation
All pots = -2*Zval/r beyond r=  1.5227

VLOCAL1: 99.0% of the norm of Vloc inside     18.722 Ry
VLOCAL1: 99.9% of the norm of Vloc inside     42.668 Ry
atom: Maximum radius for 4*pi*r*r*local-pseudopot. charge    1.83678
atom: Maximum radius for r*vlocal+2*Zval:    1.58088
GHOST: No ghost state for L =  0
GHOST: No ghost state for L =  1
GHOST: No ghost state for L =  2
GHOST: No ghost state for L =  3

KBgen: Kleinman-Bylander projectors: 
   l= 0   rc=  1.704034   el= -1.009801   Ekb=  5.335044   kbcos=  0.316824
   l= 1   rc=  1.704034   el= -0.388707   Ekb= -3.785862   kbcos= -0.366464
   l= 2   rc=  1.791422   el=  0.001971   Ekb= -0.970471   kbcos= -0.009212
   l= 3   rc=  1.859892   el=  0.003065   Ekb= -0.399525   kbcos= -0.001223

KBgen: Total number of  Kleinman-Bylander projectors:   16
atom: -------------------------------------------------------------------------

atom: SANKEY-TYPE ORBITALS:
atom: Selected multiple-zeta basis: split     

SPLIT: Orbitals with angular momentum L= 0

SPLIT: Basis orbitals for state 2s

SPLIT: PAO cut-off radius determined from an
SPLIT: energy shift=  0.004777 Ry

   izeta = 1
                 lambda =    1.000000
                     rc =    4.870301
                 energy =   -1.004978
                kinetic =    0.843912
    potential(screened) =   -1.848890
       potential(ionic) =   -5.399930

   izeta = 2
                 rmatch =    3.475094
              splitnorm =    0.150000
                 energy =   -0.867524
                kinetic =    1.299872
    potential(screened) =   -2.167396
       potential(ionic) =   -5.961732

SPLIT: Orbitals with angular momentum L= 1

SPLIT: Basis orbitals for state 2p

SPLIT: PAO cut-off radius determined from an
SPLIT: energy shift=  0.004777 Ry

   izeta = 1
                 lambda =    1.000000
                     rc =    6.099293
                 energy =   -0.384291
                kinetic =    2.361393
    potential(screened) =   -2.745684
       potential(ionic) =   -6.151019

   izeta = 2
                 rmatch =    3.699245
              splitnorm =    0.150000
                 energy =   -0.263576
                kinetic =    3.460758
    potential(screened) =   -3.724335
       potential(ionic) =   -7.494953

POLgen: Perturbative polarization orbital with L=  2

POLgen: Polarization orbital for state 2p

   izeta = 1
                     rc =    6.099293
                 energy =    1.042694
                kinetic =    2.181445
    potential(screened) =   -1.138752
       potential(ionic) =   -3.900921
atom: Total number of Sankey-type orbitals: 13

atm_pop: Valence configuration (for local Pseudopot. screening):
 2s( 2.00)                                                            
 2p( 2.00)                                                            
Vna: chval, zval:    4.00000   4.00000

Vna:  Cut-off radius for the neutral-atom potential:   6.099293
comcore: Pseudo-core radius Rcore=  1.791422

atom: _________________________________________________________________________

<basis_specs>
===============================================================================
Mg                   Z=  12    Mass=  24.310        Charge= 0.17977+309
Lmxo=0 Lmxkb= 2    BasisType=split      Semic=F
L=0  Nsemic=0  Cnfigmx=3
          n=1  nzeta=2  polorb=1
            splnorm:   0.15000    
               vcte:    0.0000    
               rinn:    0.0000    
                rcs:    0.0000      0.0000    
            lambdas:    1.0000      1.0000    
-------------------------------------------------------------------------------
L=0  Nkbl=1  erefs: 0.17977+309
L=1  Nkbl=1  erefs: 0.17977+309
L=2  Nkbl=1  erefs: 0.17977+309
===============================================================================
</basis_specs>

atom: Called for Mg                    (Z =  12)

read_vps: Pseudopotential generation method:
read_vps: ATM3      Troullier-Martins                       
Total valence charge:    2.00000

read_vps: Pseudopotential includes a core correction:
read_vps: Pseudo-core for xc-correction

xc_check: Exchange-correlation functional:
xc_check: GGA Perdew, Burke & Ernzerhof 1996
V l=0 = -2*Zval/r beyond r=  2.7941
V l=1 = -2*Zval/r beyond r=  2.7941
V l=2 = -2*Zval/r beyond r=  2.7941
All V_l potentials equal beyond r=  2.5282
This should be close to max(r_c) in ps generation
All pots = -2*Zval/r beyond r=  2.7941

VLOCAL1: 99.0% of the norm of Vloc inside      6.791 Ry
VLOCAL1: 99.9% of the norm of Vloc inside     15.477 Ry
atom: Maximum radius for 4*pi*r*r*local-pseudopot. charge    2.97435
atom: Maximum radius for r*vlocal+2*Zval:    2.56001
GHOST: No ghost state for L =  0
GHOST: No ghost state for L =  1
GHOST: No ghost state for L =  2

KBgen: Kleinman-Bylander projectors: 
   l= 0   rc=  3.088009   el= -0.345349   Ekb=  3.255086   kbcos=  0.241251
   l= 1   rc=  3.206016   el= -0.098276   Ekb=  1.114388   kbcos=  0.231681
   l= 2   rc=  3.328532   el=  0.002057   Ekb= -0.689313   kbcos= -0.054276

KBgen: Total number of  Kleinman-Bylander projectors:    9
atom: -------------------------------------------------------------------------

atom: SANKEY-TYPE ORBITALS:
atom: Selected multiple-zeta basis: split     

SPLIT: Orbitals with angular momentum L= 0

SPLIT: Basis orbitals for state 3s

SPLIT: PAO cut-off radius determined from an
SPLIT: energy shift=  0.004777 Ry

   izeta = 1
                 lambda =    1.000000
                     rc =    8.085463
                 energy =   -0.341159
                kinetic =    0.253722
    potential(screened) =   -0.594882
       potential(ionic) =   -1.297409

   izeta = 2
                 rmatch =    6.619780
              splitnorm =    0.150000
                 energy =   -0.297738
                kinetic =    0.397438
    potential(screened) =   -0.695176
       potential(ionic) =   -1.426576

POLgen: Perturbative polarization orbital with L=  1

POLgen: Polarization orbital for state 3s

   izeta = 1
                     rc =    8.085463
                 energy =   -0.055232
                kinetic =    0.490910
    potential(screened) =   -0.546142
       potential(ionic) =   -1.238823
atom: Total number of Sankey-type orbitals:  5

atm_pop: Valence configuration (for local Pseudopot. screening):
 3s( 2.00)                                                            
Vna: chval, zval:    2.00000   2.00000

Vna:  Cut-off radius for the neutral-atom potential:   8.085463
comcore: Pseudo-core radius Rcore=  3.915882

atom: _________________________________________________________________________

prinput: Basis input ----------------------------------------------------------

PAO.BasisType split     

%block ChemicalSpeciesLabel
    1   22 Ti                      # Species index, atomic number, species label
    2   16 S                       # Species index, atomic number, species label
    3    6 C                       # Species index, atomic number, species label
    4   12 Mg                      # Species index, atomic number, species label
%endblock ChemicalSpeciesLabel

%block PAO.Basis                 # Define Basis set
Ti                    2                    # Species label, number of l-shells
 n=4   0   2 P   1                   # n, l, Nzeta, Polarization, NzetaPol
   8.448      7.181   
   1.000      1.000   
 n=3   2   2                         # n, l, Nzeta 
   5.806      3.108   
   1.000      1.000   
S                     2                    # Species label, number of l-shells
 n=3   0   2                         # n, l, Nzeta 
   4.842      3.543   
   1.000      1.000   
 n=3   1   2 P   1                   # n, l, Nzeta, Polarization, NzetaPol
   6.064      3.964   
   1.000      1.000   
C                     2                    # Species label, number of l-shells
 n=2   0   2                         # n, l, Nzeta 
   4.870      3.475   
   1.000      1.000   
 n=2   1   2 P   1                   # n, l, Nzeta, Polarization, NzetaPol
   6.099      3.699   
   1.000      1.000   
Mg                    1                    # Species label, number of l-shells
 n=3   0   2 P   1                   # n, l, Nzeta, Polarization, NzetaPol
   8.085      6.620   
   1.000      1.000   
%endblock PAO.Basis

prinput: ----------------------------------------------------------------------

coor:   Atomic-coordinates input format  =     Fractional

siesta: WARNING: XV file not found

siesta: Atomic coordinates (Bohr) and species
siesta:      3.09080   1.62741   4.47960  1        1
siesta:     12.53337   1.62741   4.47960  1        2
siesta:      3.08949   8.13058   4.45446  1        3
siesta:     12.53206   8.13058   4.45446  1        4
siesta:      3.09034  14.63443   4.45829  1        5
siesta:     12.53291  14.63443   4.45829  1        6
siesta:      3.09245  21.13945   4.46335  1        7
siesta:     12.53502  21.13945   4.46335  1        8
siesta:      3.09256  27.64604   4.46250  1        9
siesta:     12.53513  27.64604   4.46250  1       10
siesta:      7.80876   4.87699  46.57704  1       11
siesta:     17.25133   4.87699  46.57704  1       12
siesta:      7.80875  11.38328  46.57426  1       13
siesta:     17.25132  11.38328  46.57426  1       14
siesta:      7.81053  17.88827  46.57837  1       15
siesta:     17.25310  17.88827  46.57837  1       16
siesta:      7.81100  24.39274  46.58030  1       17
siesta:     17.25357  24.39274  46.58030  1       18
siesta:      7.81069  30.89793  46.58068  1       19
siesta:     17.25326  30.89793  46.58068  1       20
siesta:      5.83928   1.62448  43.69200  2       21
siesta:     15.28185   1.62448  43.69200  2       22
siesta:      5.83741   8.13022  43.69115  2       23
siesta:     15.27998   8.13022  43.69115  2       24
siesta:      5.83911  14.63739  43.69067  2       25
siesta:     15.28168  14.63739  43.69067  2       26
siesta:      5.84007  21.14134  43.69408  2       27
siesta:     15.28264  21.14134  43.69408  2       28
siesta:      5.83999  27.64477  43.69526  2       29
siesta:     15.28256  27.64477  43.69526  2       30
siesta:      5.06369   4.88480   7.35345  2       31
siesta:     14.50626   4.88480   7.35345  2       32
siesta:      5.06314  11.38172   7.34655  2       33
siesta:     14.50571  11.38172   7.34655  2       34
siesta:      5.06580  17.88427   7.34995  2       35
siesta:     14.50837  17.88427   7.34995  2       36
siesta:      5.07475  24.39261   7.34367  2       37
siesta:     14.51732  24.39261   7.34367  2       38
siesta:      5.06644  30.89721   7.35680  2       39
siesta:     14.50901  30.89721   7.35680  2       40
siesta:      7.80995   1.62708   2.73746  2       41
siesta:     17.25252   1.62708   2.73746  2       42
siesta:      7.80866   8.13077   2.72905  2       43
siesta:     17.25123   8.13077   2.72905  2       44
siesta:      7.80957  14.63453   2.73118  2       45
siesta:     17.25213  14.63453   2.73118  2       46
siesta:      7.81213  21.13958   2.73514  2       47
siesta:     17.25470  21.13958   2.73514  2       48
siesta:      7.81220  27.64574   2.73543  2       49
siesta:     17.25477  27.64574   2.73543  2       50
siesta:      3.08840   4.87329   1.07053  2       51
siesta:     12.53097   4.87329   1.07053  2       52
siesta:      3.08792  11.38377   1.06406  2       53
siesta:     12.53049  11.38377   1.06406  2       54
siesta:      3.09021  17.88889   1.06902  2       55
siesta:     12.53277  17.88889   1.06902  2       56
siesta:      3.09036  24.39261   1.07190  2       57
siesta:     12.53292  24.39261   1.07190  2       58
siesta:      3.09047  30.90076   1.07492  2       59
siesta:     12.53303  30.90076   1.07492  2       60
siesta:      0.34344   1.62416  43.69611  2       61
siesta:      9.78601   1.62416  43.69611  2       62
siesta:      0.34144   8.12973  43.69167  2       63
siesta:      9.78401   8.12973  43.69167  2       64
siesta:      0.34314  14.63716  43.69408  2       65
siesta:      9.78571  14.63716  43.69408  2       66
siesta:      0.34427  21.14147  43.69734  2       67
siesta:      9.78684  21.14147  43.69734  2       68
siesta:      0.34419  27.64441  43.69833  2       69
siesta:      9.78676  27.64441  43.69833  2       70
siesta:      1.11339   4.88467   7.35033  2       71
siesta:     10.55596   4.88467   7.35033  2       72
siesta:      1.11397  11.38085   7.34409  2       73
siesta:     10.55654  11.38085   7.34409  2       74
siesta:      1.11662  17.88385   7.34953  2       75
siesta:     10.55918  17.88385   7.34953  2       76
siesta:      1.12575  24.39255   7.36110  2       77
siesta:     10.56832  24.39255   7.36110  2       78
siesta:      1.11618  30.89715   7.35553  2       79
siesta:     10.55874  30.89715   7.35553  2       80
siesta:      3.49773   6.77516  13.46086  3       81
siesta:     12.94030   6.77516  13.46086  3       82
siesta:      3.49781  14.90636  13.46086  3       83
siesta:     12.94037  14.90636  13.46086  3       84
siesta:      3.49773  23.03694  13.46086  3       85
siesta:     12.94030  23.03694  13.46086  3       86
siesta:      3.49772  31.16765  13.46086  3       87
siesta:     12.94029  31.16765  13.46086  3       88
siesta:      8.21902   6.77523  13.46086  3       89
siesta:     17.66159   6.77523  13.46086  3       90
siesta:      8.21905  14.90633  13.46086  3       91
siesta:     17.66162  14.90633  13.46086  3       92
siesta:      8.21899  23.03697  13.46086  3       93
siesta:     17.66156  23.03697  13.46086  3       94
siesta:      8.21899  31.16774  13.46086  3       95
siesta:     17.66156  31.16774  13.46086  3       96
siesta:      3.49779   1.35535  13.46086  3       97
siesta:     12.94036   1.35535  13.46086  3       98
siesta:      3.49775   9.48655  13.46086  3       99
siesta:     12.94032   9.48655  13.46086  3      100
siesta:      3.49775  17.61755  13.46086  3      101
siesta:     12.94032  17.61755  13.46086  3      102
siesta:      3.49773  25.74822  13.46086  3      103
siesta:     12.94029  25.74822  13.46086  3      104
siesta:      8.21904   1.35538  13.46086  3      105
siesta:     17.66161   1.35538  13.46086  3      106
siesta:      8.21902   9.48652  13.46086  3      107
siesta:     17.66158   9.48652  13.46086  3      108
siesta:      8.21903  17.61748  13.46086  3      109
siesta:     17.66160  17.61748  13.46086  3      110
siesta:      8.21899  25.74819  13.46086  3      111
siesta:     17.66156  25.74819  13.46086  3      112
siesta:      1.13711   2.70963  13.46086  3      113
siesta:     10.57968   2.70963  13.46086  3      114
siesta:      1.13707  10.84076  13.46086  3      115
siesta:     10.57964  10.84076  13.46086  3      116
siesta:      1.13712  18.97157  13.46086  3      117
siesta:     10.57969  18.97157  13.46086  3      118
siesta:      1.13710  27.10231  13.46086  3      119
siesta:     10.57967  27.10231  13.46086  3      120
siesta:      5.85843   2.70963  13.46086  3      121
siesta:     15.30100   2.70963  13.46086  3      122
siesta:      5.85847  10.84073  13.46086  3      123
siesta:     15.30104  10.84073  13.46086  3      124
siesta:      5.85845  18.97153  13.46086  3      125
siesta:     15.30101  18.97153  13.46086  3      126
siesta:      5.85839  27.10234  13.46086  3      127
siesta:     15.30095  27.10234  13.46086  3      128
siesta:      1.13707   5.42098  13.46086  3      129
siesta:     10.57964   5.42098  13.46086  3      130
siesta:      1.13713  13.55211  13.46086  3      131
siesta:     10.57969  13.55211  13.46086  3      132
siesta:      1.13712  21.68289  13.46086  3      133
siesta:     10.57969  21.68289  13.46086  3      134
siesta:      1.13710  29.81363  13.46086  3      135
siesta:     10.57967  29.81363  13.46086  3      136
siesta:      5.85847   5.42098  13.46086  3      137
siesta:     15.30104   5.42098  13.46086  3      138
siesta:      5.85847  13.55208  13.46086  3      139
siesta:     15.30104  13.55208  13.46086  3      140
siesta:      5.85839  21.68285  13.46086  3      141
siesta:     15.30096  21.68285  13.46086  3      142
siesta:      5.85842  29.81366  13.46086  3      143
siesta:     15.30099  29.81366  13.46086  3      144
siesta:      7.80995   1.62715   9.85925  4      145

siesta: System type = bulk      

initatomlists: Number of atoms, orbitals, and projectors:    145  1917  2313

siesta: ******************** Simulation parameters ****************************
siesta:
siesta: The following are some of the parameters of the simulation.
siesta: A complete list of the parameters used, including default values,
siesta: can be found in file out.fdf
siesta:
redata: Non-Collinear-spin run           =     F
redata: SpinPolarized (Up/Down) run      =     T
redata: Number of spin components        =     2
redata: Long output                      =     F
redata: Number of Atomic Species         =        4
redata: Charge density info will appear in .RHO file
redata: Write Mulliken Pop.              =     NO
redata: Mesh Cutoff                      =   300.0000  Ry
redata: Net charge of the system         =     0.0000 |e|
redata: Max. number of SCF Iter          =      300
redata: Performing Pulay mixing using    =     8 iterations
redata: Mix DM in first SCF step ?       =     F
redata: Write Pulay info on disk?        =     F
redata: Discard 1st Pulay DM after  kick =     F
redata: New DM Mixing Weight             =     0.0500
redata: New DM Occupancy tolerance       = 0.000000000001
redata: No kicks to SCF
redata: DM Mixing Weight for Kicks       =     0.5000
redata: DM Tolerance for SCF             =     0.000100
redata: Require Energy convergence for SCF =     F
redata: DM Energy tolerance for SCF      =     0.000100 eV
redata: Require Harris convergence for SCF =     F
redata: DM Harris energy tolerance for SCF =     0.000100 eV
redata: Antiferro initial spin density   =     F
redata: Using Saved Data (generic)   =     T
redata: Use continuation files for DM    =     T
redata: Neglect nonoverlap interactions  =     F
redata: Method of Calculation            =     Diagonalization
redata: Divide and Conquer               =     T
redata: Electronic Temperature           =     0.0019  Ry
redata: Fix the spin of the system       =     F
redata: Dynamics option                  =     CG coord. optimization
redata: Variable cell                    =     T
redata: Use continuation files for CG    =     T
redata: Max atomic displ per move        =     0.2000  Bohr
redata: Maximum number of CG moves       =     1000
redata: Force tolerance                  =     0.0004  Ry/Bohr
redata: Stress tolerance                 =     1.0000  GPa
redata: ***********************************************************************
Total number of electrons:   698.000000
Total ionic charge:   698.000000

* ProcessorY, Blocksize:    2  24

k-point displ. along   2 input, could be:     0.00    0.50
 Kpoints in:            4 . Kpoints trimmed:            4

siesta: k-grid: Number of k-points =     4
siesta: k-grid: Cutoff (effective) =    12.500 Ang
siesta: k-grid: Supercell and displacements
siesta: k-grid:    3   0   0      0.000
siesta: k-grid:    0   2   0      0.000
siesta: k-grid:    0   0   1      0.000
Naive supercell factors:     3    2    2

superc: Internal auxiliary supercell:     3 x     2 x     2  =      12
superc: Number of atoms, orbitals, and projectors:   1740  23004  27756

* Maximum dynamic memory allocated =     4 MB

siesta:                 ==============================
                            Begin CG move =      0
                        ==============================

superc: Internal auxiliary supercell:     3 x     2 x     2  =      12
superc: Number of atoms, orbitals, and projectors:   1740  23004  27756

outcell: Unit cell vectors (Ang):
        9.993580    0.000000    0.000000
       -0.000006   17.210680    0.000000
        0.000000    0.000000   25.000000

outcell: Cell vector modules (Ang)   :    9.993580   17.210680   25.000000
outcell: Cell angles (23,13,12) (deg):     90.0000     90.0000     90.0000
outcell: Cell volume (Ang**3)        :   4299.9077
New_DM. Step:     1
Initializing Density Matrix...

InitMesh: MESH =   108 x   180 x   270 =     5248800
InitMesh: Mesh cutoff (required, used) =   300.000   302.309 Ry

* Maximum dynamic memory allocated =  1440 MB

stepf: Fermi-Dirac step function

siesta: Program's energy decomposition (eV):
siesta: Ebs     =     -9141.197184
siesta: Eions   =     47015.810783
siesta: Ena     =     10598.287066
siesta: Ekin    =     14642.780825
siesta: Enl     =       759.944670
siesta: DEna    =        -0.000012
siesta: DUscf   =         0.000000
siesta: DUext   =         0.000000
siesta: Exc     =    -11197.708067
siesta: eta*DQ  =         0.000000
siesta: Emadel  =         0.000000
siesta: Emeta   =         0.000000
siesta: Emolmec =         0.000000
siesta: Ekinion =         0.000000
siesta: Eharris =    -31760.679736
siesta: Etot    =    -32212.506301
siesta: FreeEng =    -32212.506301

siesta: iscf   Eharris(eV)      E_KS(eV)   FreeEng(eV)   dDmax  Ef(eV)
siesta:    1   -31760.6797   -32212.5063   -32212.5063  0.9118 -5.6147
timer: Routine,Calls,Time,% = IterSCF        1    1241.115  99.29
elaps: Routine,Calls,Wall,% = IterSCF        1     310.904  99.30
siesta:    2   -36592.4484   -31736.0795   -31736.1893  2.3958 -8.7024
siesta:    3   -32028.2067   -32028.0013   -32028.1339  0.6399 -4.3784
siesta:    4   -31877.1741   -31937.9888   -31938.1606  0.4946 -4.9454
siesta:    5   -31922.2339   -31807.9902   -31808.0788  0.3250 -4.8656
siesta:    6   -31916.3151   -31775.5849   -31775.6633  0.2369 -4.9506
siesta:    7   -31914.0012   -31769.4913   -31769.5720  0.1959 -4.9520
siesta:    8   -31912.0681   -31778.3452   -31778.4260  0.1743 -4.9407
siesta:    9   -31911.8383   -31788.3884   -31788.4583  0.1578 -4.9406
siesta:   10   -31912.1768   -31805.2059   -31805.2615  0.1292 -4.9282
siesta:   11   -31912.8407   -31853.4977   -31853.5317  0.0862 -4.9139
siesta:   12   -31913.1130   -31866.2204   -31866.2366  0.0710 -4.9572
siesta:   13   -31913.9992   -31882.6063   -31882.6331  0.0471 -5.0909
siesta:   14   -31913.8269   -31886.8004   -31886.8389  0.0440 -5.0633
siesta:   15   -31913.6221   -31897.9178   -31897.9565  0.0423 -5.0221
siesta:   16   -31913.5145   -31899.5922   -31899.6242  0.0383 -4.9921
siesta:   17   -31913.5028   -31899.6835   -31899.7167  0.0275 -4.9586
siesta:   18   -31913.5631   -31904.2750   -31904.3016  0.0193 -4.9224
siesta:   19   -31913.5435   -31903.7398   -31903.7769  0.0144 -4.9225
siesta:   20   -31913.5379   -31907.6065   -31907.6357  0.0131 -4.9410
siesta:   21   -31913.5490   -31910.5427   -31910.5759  0.0114 -4.9557
siesta:   22   -31913.5563   -31911.8083   -31911.8354  0.0096 -4.9598
siesta:   23   -31913.5614   -31912.6340   -31912.6611  0.0089 -4.9609
siesta:   24   -31913.5761   -31914.3403   -31914.3681  0.0059 -4.9521
siesta:   25   -31913.5838   -31914.6727   -31914.7018  0.0053 -4.9447
siesta:   26   -31913.5920   -31914.7326   -31914.7604  0.0042 -4.9412
siesta:   27   -31913.5975   -31914.3563   -31914.3845  0.0036 -4.9390
siesta:   28   -31913.5991   -31914.0776   -31914.1064  0.0036 -4.9367
siesta:   29   -31913.6010   -31913.9926   -31914.0207  0.0032 -4.9355
siesta:   30   -31913.6023   -31914.0431   -31914.0709  0.0032 -4.9354
siesta:   31   -31913.6092   -31913.3211   -31913.3492  0.0026 -4.9313
siesta:   32   -31913.6100   -31912.9763   -31913.0059  0.0019 -4.9295
siesta:   33   -31913.6103   -31913.0654   -31913.0949  0.0017 -4.9280
siesta:   34   -31913.6110   -31913.2441   -31913.2744  0.0014 -4.9252
siesta:   35   -31913.6112   -31913.5398   -31913.5701  0.0014 -4.9240
siesta:   36   -31913.6114   -31913.5876   -31913.6179  0.0016 -4.9240
siesta:   37   -31913.6114   -31913.5714   -31913.6017  0.0017 -4.9237
siesta:   38   -31913.6111   -31913.5445   -31913.5750  0.0012 -4.9229
siesta:   39   -31913.6110   -31913.5758   -31913.6066  0.0011 -4.9229
siesta:   40   -31913.6110   -31913.6352   -31913.6661  0.0010 -4.9229
siesta:   41   -31913.6110   -31913.6568   -31913.6877  0.0010 -4.9229
siesta:   42   -31913.6109   -31913.6723   -31913.7031  0.0009 -4.9228
siesta:   43   -31913.6107   -31913.7157   -31913.7466  0.0008 -4.9219
siesta:   44   -31913.6107   -31913.7165   -31913.7478  0.0008 -4.9218
siesta:   45   -31913.6107   -31913.6971   -31913.7284  0.0007 -4.9211
siesta:   46   -31913.6107   -31913.6801   -31913.7114  0.0005 -4.9208
siesta:   47   -31913.6107   -31913.6739   -31913.7051  0.0005 -4.9207
siesta:   48   -31913.6106   -31913.6397   -31913.6710  0.0005 -4.9207
siesta:   49   -31913.6106   -31913.6375   -31913.6689  0.0004 -4.9206
siesta:   50   -31913.6106   -31913.6228   -31913.6541  0.0003 -4.9204
siesta:   51   -31913.6106   -31913.6181   -31913.6495  0.0003 -4.9203
siesta:   52   -31913.6106   -31913.6167   -31913.6481  0.0003 -4.9202
siesta:   53   -31913.6106   -31913.6039   -31913.6353  0.0002 -4.9202
siesta:   54   -31913.6106   -31913.5990   -31913.6304  0.0002 -4.9202
siesta:   55   -31913.6106   -31913.5984   -31913.6298  0.0002 -4.9202
siesta:   56   -31913.6106   -31913.5995   -31913.6309  0.0002 -4.9202
siesta:   57   -31913.6106   -31913.6018   -31913.6332  0.0002 -4.9202
siesta:   58   -31913.6106   -31913.6042   -31913.6356  0.0002 -4.9202
siesta:   59   -31913.6106   -31913.6045   -31913.6359  0.0002 -4.9202
siesta:   60   -31913.6106   -31913.6047   -31913.6361  0.0002 -4.9202
siesta:   61   -31913.6106   -31913.6031   -31913.6345  0.0002 -4.9202
siesta:   62   -31913.6106   -31913.5982   -31913.6296  0.0002 -4.9201
siesta:   63   -31913.6106   -31913.5967   -31913.6282  0.0002 -4.9200
siesta:   64   -31913.6106   -31913.5979   -31913.6293  0.0002 -4.9200
siesta:   65   -31913.6106   -31913.6021   -31913.6335  0.0001 -4.9199
siesta:   66   -31913.6106   -31913.6047   -31913.6361  0.0001 -4.9198
siesta:   67   -31913.6106   -31913.6097   -31913.6411  0.0001 -4.9197

siesta: E_KS(eV) =           -31913.6148

siesta: E_KS - E_eggbox =    -31913.6148

siesta: Atomic forces (eV/Ang):
----------------------------------------
   Tot    0.125251    0.002878   -0.011013
----------------------------------------
   Max    3.891996
   Res    0.267658    sqrt( Sum f_i^2 / 3N )
----------------------------------------
   Max    3.891996    constrained

Stress-tensor-Voigt (kbar):       -1.03       -1.81       -9.39        0.07        0.15       -0.12
(Free)E + p*V (eV/cell)   -31902.7022
Target enthalpy (eV/cell)   -31913.6462

siesta: Stress tensor (static) (eV/Ang**3):
        -0.000644    0.000046   -0.000077
         0.000046   -0.001130    0.000092
        -0.000077    0.000092   -0.005861

siesta: Pressure (static):          4.07785831  kBar

siesta: Stress tensor (total) (eV/Ang**3):
        -0.000644    0.000046   -0.000077
         0.000046   -0.001130    0.000092
        -0.000077    0.000092   -0.005861

siesta: Pressure (total):          4.07785831  kBar

cgvc: No target stress found, assuming hydrostatic MD.TargetPressure.

cgvc: Target stress (kBar)
cgvc:        -0.000       0.000       0.000
cgvc:         0.000      -0.000       0.000
cgvc:         0.000       0.000      -0.000

cgvc: WARNING: CG file not found

* Maximum dynamic memory allocated =  1561 MB

siesta:                 ==============================
                            Begin CG move =      1
                        ==============================
k-point displ. along   2 input, could be:     0.00    0.50
 Kpoints in:            4 . Kpoints trimmed:            4

siesta: k-grid: Number of k-points =     4
siesta: k-grid: Cutoff (effective) =    12.500 Ang
siesta: k-grid: Supercell and displacements
siesta: k-grid:    3   0   0      0.000
siesta: k-grid:    0   2   0      0.000
siesta: k-grid:    0   0   1      0.000
Naive supercell factors:     3    2    2

superc: Internal auxiliary supercell:     3 x     2 x     2  =      12
superc: Number of atoms, orbitals, and projectors:   1740  23004  27756

outcell: Unit cell vectors (Ang):
       10.014241   -0.001474    0.000000
       -0.002544   17.273097    0.000000
        0.000000    0.000000   25.000000

outcell: Cell vector modules (Ang)   :   10.014242   17.273098   25.000000
outcell: Cell angles (23,13,12) (deg):     90.0000     90.0000     90.0169
outcell: Cell volume (Ang**3)        :   4324.4241
New_DM. Step:     2
Re-using DM from previous geometry...
Re-using DM without extrapolation (not allowed)
Density Matrix sparsity pattern changed.

InitMesh: MESH =   108 x   180 x   270 =     5248800
InitMesh: Mesh cutoff (required, used) =   300.000   300.128 Ry

siesta: iscf   Eharris(eV)      E_KS(eV)   FreeEng(eV)   dDmax  Ef(eV)
siesta:    1   -31914.2154   -31909.0116   -31909.0430  0.0556 -4.9392
siesta:    2   -31938.1088   -31912.3565   -31912.3768  0.3673 -5.4712
siesta:    3   -31914.0770   -31909.4657   -31909.5745  0.0486 -4.9091
siesta:    4   -31914.0312   -31910.0410   -31910.0611  0.0408 -4.9023
siesta:    5   -31914.0139   -31910.5405   -31910.5655  0.0351 -4.9110
siesta:    6   -31914.0050   -31912.0852   -31912.1119  0.0168 -4.9249
siesta:    7   -31913.9995   -31912.1970   -31912.2390  0.0161 -4.9256
siesta:    8   -31913.9970   -31913.2686   -31913.3082  0.0124 -4.9266
siesta:    9   -31913.9972   -31913.6477   -31913.6812  0.0073 -4.9310
siesta:   10   -31913.9969   -31913.7789   -31913.8104  0.0055 -4.9305
siesta:   11   -31914.0004   -31913.9059   -31913.9370  0.0081 -4.9243
siesta:   12   -31913.9991   -31913.9492   -31913.9778  0.0076 -4.9243
siesta:   13   -31913.9977   -31913.9900   -31914.0194  0.0062 -4.9246
siesta:   14   -31913.9972   -31913.9925   -31914.0231  0.0049 -4.9250
siesta:   15   -31913.9968   -31914.0079   -31914.0391  0.0039 -4.9249
siesta:   16   -31913.9971   -31914.0328   -31914.0645  0.0042 -4.9242
siesta:   17   -31913.9971   -31914.0376   -31914.0691  0.0040 -4.9240
siesta:   18   -31913.9978   -31914.0167   -31914.0483  0.0039 -4.9228
siesta:   19   -31913.9985   -31913.9955   -31914.0266  0.0031 -4.9208
siesta:   20   -31913.9985   -31913.9888   -31914.0196  0.0032 -4.9209
siesta:   21   -31913.9985   -31913.9902   -31914.0210  0.0032 -4.9210
siesta:   22   -31913.9990   -31914.0116   -31914.0424  0.0025 -4.9191
siesta:   23   -31913.9987   -31914.0030   -31914.0337  0.0030 -4.9199
siesta:   24   -31913.9988   -31914.0056   -31914.0364  0.0030 -4.9197
siesta:   25   -31913.9993   -31914.0129   -31914.0436  0.0027 -4.9186
siesta:   26   -31913.9996   -31914.0057   -31914.0361  0.0026 -4.9179
siesta:   27   -31914.0004   -31913.9856   -31914.0159  0.0020 -4.9161
siesta:   28   -31914.0006   -31913.9824   -31914.0122  0.0020 -4.9158
siesta:   29   -31914.0012   -31913.9890   -31914.0187  0.0016 -4.9143
siesta:   30   -31914.0014   -31913.9911   -31914.0205  0.0016 -4.9139
siesta:   31   -31914.0021   -31914.0097   -31914.0390  0.0013 -4.9123
siesta:   32   -31914.0018   -31914.0001   -31914.0290  0.0016 -4.9130
siesta:   33   -31914.0028   -31914.0217   -31914.0507  0.0012 -4.9116
siesta:   34   -31914.0030   -31914.0207   -31914.0491  0.0015 -4.9116
siesta:   35   -31914.0042   -31914.0326   -31914.0608  0.0013 -4.9094
siesta:   36   -31914.0044   -31914.0179   -31914.0453  0.0010 -4.9091
siesta:   37   -31914.0048   -31914.0147   -31914.0419  0.0009 -4.9085
siesta:   38   -31914.0052   -31914.0015   -31914.0284  0.0009 -4.9079
siesta:   39   -31914.0058   -31914.0049   -31914.0316  0.0006 -4.9068
siesta:   40   -31914.0057   -31914.0043   -31914.0306  0.0005 -4.9070
siesta:   41   -31914.0056   -31914.0018   -31914.0281  0.0006 -4.9071
siesta:   42   -31914.0058   -31913.9945   -31914.0209  0.0006 -4.9066
siesta:   43   -31914.0058   -31913.9924   -31914.0187  0.0008 -4.9065
siesta:   44   -31914.0064   -31914.0120   -31914.0382  0.0004 -4.9054
siesta:   45   -31914.0063   -31914.0054   -31914.0313  0.0004 -4.9056
siesta:   46   -31914.0062   -31913.9997   -31914.0256  0.0004 -4.9057
siesta:   47   -31914.0064   -31913.9962   -31914.0221  0.0004 -4.9055
siesta:   48   -31914.0064   -31913.9951   -31914.0210  0.0005 -4.9055
siesta:   49   -31914.0066   -31914.0022   -31914.0280  0.0005 -4.9051
siesta:   50   -31914.0068   -31914.0051   -31914.0307  0.0004 -4.9050
siesta:   51   -31914.0068   -31914.0082   -31914.0338  0.0003 -4.9049
siesta:   52   -31914.0069   -31914.0087   -31914.0342  0.0003 -4.9048
siesta:   53   -31914.0068   -31914.0076   -31914.0331  0.0002 -4.9047
siesta:   54   -31914.0068   -31914.0075   -31914.0331  0.0002 -4.9047
siesta:   55   -31914.0068   -31914.0083   -31914.0338  0.0002 -4.9047
siesta:   56   -31914.0068   -31914.0078   -31914.0333  0.0003 -4.9047
siesta:   57   -31914.0069   -31914.0080   -31914.0335  0.0002 -4.9044
siesta:   58   -31914.0069   -31914.0082   -31914.0337  0.0002 -4.9044
siesta:   59   -31914.0069   -31914.0075   -31914.0330  0.0001 -4.9044
siesta:   60   -31914.0069   -31914.0069   -31914.0324  0.0001 -4.9044
siesta:   61   -31914.0069   -31914.0059   -31914.0314  0.0001 -4.9044
siesta:   62   -31914.0069   -31914.0055   -31914.0310  0.0001 -4.9044
siesta:   63   -31914.0069   -31914.0056   -31914.0311  0.0001 -4.9044

siesta: E_KS(eV) =           -31914.0060

siesta: Atomic forces (eV/Ang):
----------------------------------------
   Tot    0.065386    0.020347   -0.102518
----------------------------------------
   Max    2.035152
   Res    0.154753    sqrt( Sum f_i^2 / 3N )
----------------------------------------
   Max    2.035152    constrained

Stress-tensor-Voigt (kbar):        4.41        6.14       -6.97       -0.18        0.11       -0.14
(Free)E + p*V (eV/cell)   -31917.2597
Target enthalpy (eV/cell)   -31914.0314

siesta: Stress tensor (static) (eV/Ang**3):
         0.002754   -0.000111   -0.000088
        -0.000111    0.003833    0.000067
        -0.000088    0.000067   -0.004348

siesta: Pressure (static):         -1.19606034  kBar

siesta: Stress tensor (total) (eV/Ang**3):
         0.002754   -0.000111   -0.000088
        -0.000111    0.003833    0.000067
        -0.000088    0.000067   -0.004348

siesta: Pressure (total):         -1.19606034  kBar

* Maximum dynamic memory allocated =  1589 MB

siesta:                 ==============================
                            Begin CG move =      2
                        ==============================
k-point displ. along   2 input, could be:     0.00    0.50
 Kpoints in:            4 . Kpoints trimmed:            4

siesta: k-grid: Number of k-points =     4
siesta: k-grid: Cutoff (effective) =    12.500 Ang
siesta: k-grid: Supercell and displacements
siesta: k-grid:    3   0   0      0.000
siesta: k-grid:    0   2   0      0.000
siesta: k-grid:    0   0   1      0.000
Naive supercell factors:     3    2    2

superc: Internal auxiliary supercell:     3 x     2 x     2  =      12
superc: Number of atoms, orbitals, and projectors:   1740  23004  27756

outcell: Unit cell vectors (Ang):
       10.044355   -0.003621    0.000000
       -0.006242   17.364068    0.000000
        0.000000    0.000000   25.000000

outcell: Cell vector modules (Ang)   :   10.044355   17.364069   25.000000
outcell: Cell angles (23,13,12) (deg):     90.0000     90.0000     90.0413
outcell: Cell volume (Ang**3)        :   4360.2708
New_DM. Step:     3
Re-using DM from previous geometry...
Re-using DM without extrapolation (not allowed)
Density Matrix sparsity pattern changed.

InitMesh: MESH =   108 x   192 x   270 =     5598720
InitMesh: Mesh cutoff (required, used) =   300.000   319.525 Ry

siesta: iscf   Eharris(eV)      E_KS(eV)   FreeEng(eV)   dDmax  Ef(eV)
siesta:    1   -31914.4880   -31906.8423   -31906.8677  0.0697 -4.9613
siesta:    2   -31998.4549   -31910.0230   -31910.0248  0.8119 -5.7912
siesta:    3   -31914.2574   -31907.1688   -31907.3394  0.0622 -4.9247
siesta:    4   -31914.1078   -31908.2585   -31908.2679  0.0406 -4.8437
siesta:    5   -31914.0193   -31908.3387   -31908.3585  0.0426 -4.8551
siesta:    6   -31913.9551   -31909.4134   -31909.4351  0.0314 -4.8938
siesta:    7   -31913.9242   -31910.7310   -31910.7539  0.0164 -4.9238
siesta:    8   -31913.9173   -31911.1099   -31911.1528  0.0142 -4.9274
siesta:    9   -31913.9177   -31912.7243   -31912.7669  0.0049 -4.9249
siesta:   10   -31913.9214   -31913.2325   -31913.2721  0.0030 -4.9290
siesta:   11   -31913.9165   -31913.5453   -31913.5806  0.0034 -4.9264
siesta:   12   -31913.9188   -31913.7937   -31913.8297  0.0021 -4.9241
siesta:   13   -31913.9170   -31913.8968   -31913.9307  0.0014 -4.9248
siesta:   14   -31913.9146   -31913.9348   -31913.9699  0.0012 -4.9258
siesta:   15   -31913.9152   -31913.9708   -31914.0079  0.0010 -4.9248
siesta:   16   -31913.9147   -31913.9437   -31913.9800  0.0008 -4.9258
siesta:   17   -31913.9150   -31913.9019   -31913.9387  0.0007 -4.9269
siesta:   18   -31913.9149   -31913.9155   -31913.9519  0.0007 -4.9267
siesta:   19   -31913.9150   -31913.9126   -31913.9491  0.0007 -4.9266
siesta:   20   -31913.9149   -31913.9132   -31913.9496  0.0006 -4.9263
siesta:   21   -31913.9150   -31913.9121   -31913.9486  0.0005 -4.9262
siesta:   22   -31913.9150   -31913.9039   -31913.9404  0.0005 -4.9260
siesta:   23   -31913.9149   -31913.9042   -31913.9407  0.0005 -4.9260
siesta:   24   -31913.9149   -31913.9053   -31913.9418  0.0005 -4.9259
siesta:   25   -31913.9149   -31913.9049   -31913.9414  0.0004 -4.9260
siesta:   26   -31913.9149   -31913.9095   -31913.9461  0.0003 -4.9259
siesta:   27   -31913.9149   -31913.9136   -31913.9502  0.0003 -4.9259
siesta:   28   -31913.9148   -31913.9133   -31913.9500  0.0003 -4.9258
siesta:   29   -31913.9148   -31913.9170   -31913.9537  0.0002 -4.9257
siesta:   30   -31913.9147   -31913.9254   -31913.9621  0.0002 -4.9255
siesta:   31   -31913.9147   -31913.9220   -31913.9589  0.0002 -4.9255
siesta:   32   -31913.9147   -31913.9188   -31913.9556  0.0001 -4.9255
siesta:   33   -31913.9147   -31913.9174   -31913.9543  0.0001 -4.9254
siesta:   34   -31913.9147   -31913.9169   -31913.9538  0.0001 -4.9254
siesta:   35   -31913.9146   -31913.9149   -31913.9518  0.0001 -4.9254
siesta:   36   -31913.9146   -31913.9147   -31913.9517  0.0001 -4.9253
siesta:   37   -31913.9146   -31913.9132   -31913.9502  0.0001 -4.9253
siesta:   38   -31913.9145   -31913.9089   -31913.9460  0.0001 -4.9252

siesta: E_KS(eV) =           -31913.9077

siesta: Atomic forces (eV/Ang):
----------------------------------------
   Tot   -0.143710   -0.007897    0.004894
----------------------------------------
   Max    1.325170
   Res    0.185356    sqrt( Sum f_i^2 / 3N )
----------------------------------------
   Max    1.325170    constrained

Stress-tensor-Voigt (kbar):       12.27       17.57       -4.54       -0.46        0.08       -0.03
(Free)E + p*V (eV/cell)   -31936.9033
Target enthalpy (eV/cell)   -31913.9448

siesta: Stress tensor (static) (eV/Ang**3):
         0.007660   -0.000287   -0.000019
        -0.000287    0.010968    0.000051
        -0.000019    0.000051   -0.002831

siesta: Pressure (static):         -8.43618543  kBar

siesta: Stress tensor (total) (eV/Ang**3):
         0.007660   -0.000287   -0.000019
        -0.000287    0.010968    0.000051
        -0.000019    0.000051   -0.002831

siesta: Pressure (total):         -8.43618543  kBar

* Maximum dynamic memory allocated =  1640 MB

siesta:                 ==============================
                            Begin CG move =      3
                        ==============================
k-point displ. along   2 input, could be:     0.00    0.50
 Kpoints in:            4 . Kpoints trimmed:            4

siesta: k-grid: Number of k-points =     4
siesta: k-grid: Cutoff (effective) =    12.500 Ang
siesta: k-grid: Supercell and displacements
siesta: k-grid:    3   0   0      0.000
siesta: k-grid:    0   2   0      0.000
siesta: k-grid:    0   0   1      0.000
Naive supercell factors:     3    2    2

superc: Internal auxiliary supercell:     3 x     2 x     2  =      12
superc: Number of atoms, orbitals, and projectors:   1740  23004  27756

outcell: Unit cell vectors (Ang):
       10.026768   -0.002367    0.000000
       -0.004082   17.310940    0.000000
        0.000000    0.000000   25.000000

outcell: Cell vector modules (Ang)   :   10.026768   17.310941   25.000000
outcell: Cell angles (23,13,12) (deg):     90.0000     90.0000     90.0270
outcell: Cell volume (Ang**3)        :   4339.3194
New_DM. Step:     4
Re-using DM from previous geometry...
Re-using DM without extrapolation (not allowed)
Density Matrix sparsity pattern changed.

InitMesh: MESH =   108 x   192 x   270 =     5598720
InitMesh: Mesh cutoff (required, used) =   300.000   320.647 Ry

siesta: iscf   Eharris(eV)      E_KS(eV)   FreeEng(eV)   dDmax  Ef(eV)
siesta:    1   -31914.3156   -31918.0150   -31918.0521  0.0408 -4.8913
siesta:    2   -32034.8893   -31908.6574   -31908.7061  1.0452 -4.0289
siesta:    3   -31914.0715   -31917.5090   -31917.6086  0.0320 -4.8959
siesta:    4   -31914.0573   -31917.1607   -31917.1976  0.0291 -4.9047
siesta:    5   -31914.0502   -31915.8695   -31915.9054  0.0193 -4.9261
siesta:    6   -31914.0567   -31914.6435   -31914.6771  0.0099 -4.9183
siesta:    7   -31914.0585   -31913.8963   -31913.9246  0.0043 -4.9171
siesta:    8   -31914.0500   -31913.5384   -31913.5665  0.0029 -4.9056
siesta:    9   -31914.0483   -31913.5536   -31913.5848  0.0029 -4.9071
siesta:   10   -31914.0476   -31913.5730   -31913.6054  0.0028 -4.9094
siesta:   11   -31914.0481   -31913.6948   -31913.7275  0.0021 -4.9134
siesta:   12   -31914.0483   -31913.7471   -31913.7788  0.0017 -4.9139
siesta:   13   -31914.0481   -31913.9666   -31913.9979  0.0009 -4.9143
siesta:   14   -31914.0483   -31914.0050   -31914.0365  0.0004 -4.9143
siesta:   15   -31914.0483   -31914.0351   -31914.0664  0.0003 -4.9141
siesta:   16   -31914.0483   -31914.0552   -31914.0864  0.0003 -4.9140
siesta:   17   -31914.0483   -31914.0603   -31914.0915  0.0002 -4.9141
siesta:   18   -31914.0483   -31914.0592   -31914.0905  0.0002 -4.9142
siesta:   19   -31914.0483   -31914.0595   -31914.0908  0.0002 -4.9140
siesta:   20   -31914.0484   -31914.0581   -31914.0893  0.0002 -4.9140
siesta:   21   -31914.0484   -31914.0528   -31914.0839  0.0002 -4.9140
siesta:   22   -31914.0483   -31914.0480   -31914.0792  0.0002 -4.9140
siesta:   23   -31914.0484   -31914.0484   -31914.0795  0.0002 -4.9140
siesta:   24   -31914.0484   -31914.0489   -31914.0800  0.0002 -4.9139
siesta:   25   -31914.0484   -31914.0489   -31914.0801  0.0002 -4.9139
siesta:   26   -31914.0484   -31914.0488   -31914.0799  0.0002 -4.9140
siesta:   27   -31914.0484   -31914.0484   -31914.0795  0.0002 -4.9140
siesta:   28   -31914.0484   -31914.0477   -31914.0788  0.0002 -4.9139
siesta:   29   -31914.0485   -31914.0464   -31914.0775  0.0001 -4.9139
siesta:   30   -31914.0485   -31914.0455   -31914.0766  0.0001 -4.9140
siesta:   31   -31914.0485   -31914.0448   -31914.0759  0.0001 -4.9140
siesta:   32   -31914.0486   -31914.0451   -31914.0761  0.0001 -4.9140
siesta:   33   -31914.0486   -31914.0467   -31914.0777  0.0001 -4.9140
siesta:   34   -31914.0487   -31914.0491   -31914.0800  0.0001 -4.9140
siesta:   35   -31914.0488   -31914.0509   -31914.0818  0.0001 -4.9141
siesta:   36   -31914.0488   -31914.0517   -31914.0825  0.0001 -4.9141

siesta: E_KS(eV) =           -31914.0519

siesta: Atomic forces (eV/Ang):
----------------------------------------
   Tot    0.027683    0.011716   -0.046625
----------------------------------------
   Max    1.242776
   Res    0.141448    sqrt( Sum f_i^2 / 3N )
----------------------------------------
   Max    1.242776    constrained

Stress-tensor-Voigt (kbar):        7.67       11.52       -5.88       -0.31        0.09       -0.08
(Free)E + p*V (eV/cell)   -31926.0984
Target enthalpy (eV/cell)   -31914.0826

siesta: Stress tensor (static) (eV/Ang**3):
         0.004789   -0.000196   -0.000053
        -0.000196    0.007190    0.000053
        -0.000053    0.000053   -0.003672

siesta: Pressure (static):         -4.43656215  kBar

siesta: Stress tensor (total) (eV/Ang**3):
         0.004789   -0.000196   -0.000053
        -0.000196    0.007190    0.000053
        -0.000053    0.000053   -0.003672

siesta: Pressure (total):         -4.43656215  kBar

cgvc: Finished line minimization    1.  Mean atomic displacement =    0.0252

* Maximum dynamic memory allocated =  1660 MB

siesta:                 ==============================
                            Begin CG move =      4
                        ==============================
k-point displ. along   2 input, could be:     0.00    0.50
 Kpoints in:            4 . Kpoints trimmed:            4

siesta: k-grid: Number of k-points =     4
siesta: k-grid: Cutoff (effective) =    12.500 Ang
siesta: k-grid: Supercell and displacements
siesta: k-grid:    3   0   0      0.000
siesta: k-grid:    0   2   0      0.000
siesta: k-grid:    0   0   1      0.000
Naive supercell factors:     3    2    2

superc: Internal auxiliary supercell:     3 x     2 x     2  =      12
superc: Number of atoms, orbitals, and projectors:   1740  23004  27756

outcell: Unit cell vectors (Ang):
        9.957711   -0.000336    0.000000
       -0.000585   17.143740    0.000000
        0.000000    0.000000   25.000000

outcell: Cell vector modules (Ang)   :    9.957711   17.143740   25.000000
outcell: Cell angles (23,13,12) (deg):     90.0000     90.0000     90.0039
outcell: Cell volume (Ang**3)        :   4267.8100
New_DM. Step:     5
Re-using DM from previous geometry...
Re-using DM without extrapolation (not allowed)
Density Matrix sparsity pattern changed.

InitMesh: MESH =   108 x   180 x   270 =     5248800
InitMesh: Mesh cutoff (required, used) =   300.000   304.674 Ry

siesta: iscf   Eharris(eV)      E_KS(eV)   FreeEng(eV)   dDmax  Ef(eV)
siesta:    1   -31915.8235   -31925.7350   -31925.7658  0.0524 -5.2511
siesta:    2   -32153.4347   -31903.7908   -31903.8216  0.6184 -3.3991
siesta:    3   -31915.0782   -31924.0897   -31924.2284  0.0416 -5.0854
siesta:    4   -31914.2949   -31920.4705   -31920.4950  0.0273 -4.8678
siesta:    5   -31914.1818   -31919.0374   -31919.0771  0.0221 -4.8819
siesta:    6   -31914.1716   -31916.3406   -31916.3829  0.0164 -4.8946
siesta:    7   -31914.1508   -31914.1204   -31914.1475  0.0100 -4.9227
siesta:    8   -31914.1494   -31911.9746   -31912.0151  0.0080 -4.9122
siesta:    9   -31914.1710   -31911.7502   -31911.7859  0.0074 -4.8998
siesta:   10   -31914.1474   -31911.8457   -31911.8840  0.0065 -4.9021
siesta:   11   -31914.1357   -31912.5790   -31912.6202  0.0051 -4.9129
siesta:   12   -31914.1314   -31912.9262   -31912.9682  0.0047 -4.9174
siesta:   13   -31914.1314   -31913.0814   -31913.1221  0.0042 -4.9164
siesta:   14   -31914.1306   -31913.1727   -31913.2127  0.0034 -4.9134
siesta:   15   -31914.1290   -31913.7042   -31913.7433  0.0018 -4.9160
siesta:   16   -31914.1298   -31914.0091   -31914.0486  0.0013 -4.9143
siesta:   17   -31914.1293   -31913.9937   -31914.0322  0.0009 -4.9135
siesta:   18   -31914.1293   -31914.1233   -31914.1620  0.0007 -4.9138
siesta:   19   -31914.1293   -31914.1536   -31914.1922  0.0006 -4.9140
siesta:   20   -31914.1292   -31914.1040   -31914.1426  0.0006 -4.9138
siesta:   21   -31914.1293   -31914.1015   -31914.1402  0.0005 -4.9141
siesta:   22   -31914.1293   -31914.1268   -31914.1654  0.0005 -4.9143
siesta:   23   -31914.1293   -31914.1324   -31914.1710  0.0005 -4.9143
siesta:   24   -31914.1293   -31914.1179   -31914.1565  0.0004 -4.9142
siesta:   25   -31914.1293   -31914.1301   -31914.1687  0.0004 -4.9141
siesta:   26   -31914.1293   -31914.1334   -31914.1720  0.0003 -4.9140
siesta:   27   -31914.1293   -31914.1342   -31914.1729  0.0003 -4.9140
siesta:   28   -31914.1292   -31914.1314   -31914.1701  0.0003 -4.9139
siesta:   29   -31914.1292   -31914.1241   -31914.1628  0.0002 -4.9138
siesta:   30   -31914.1292   -31914.1275   -31914.1663  0.0002 -4.9138
siesta:   31   -31914.1291   -31914.1217   -31914.1605  0.0002 -4.9138
siesta:   32   -31914.1291   -31914.1194   -31914.1582  0.0002 -4.9137
siesta:   33   -31914.1291   -31914.1221   -31914.1610  0.0002 -4.9137
siesta:   34   -31914.1290   -31914.1142   -31914.1531  0.0001 -4.9138
siesta:   35   -31914.1290   -31914.1211   -31914.1601  0.0001 -4.9138
siesta:   36   -31914.1289   -31914.1178   -31914.1568  0.0001 -4.9137
siesta:   37   -31914.1289   -31914.1189   -31914.1579  0.0001 -4.9137
siesta:   38   -31914.1289   -31914.1184   -31914.1575  0.0001 -4.9137
siesta:   39   -31914.1289   -31914.1237   -31914.1628  0.0001 -4.9136

siesta: E_KS(eV) =           -31914.1297

siesta: Atomic forces (eV/Ang):
----------------------------------------
   Tot    0.097652    0.040862   -0.039864
----------------------------------------
   Max    1.459325
   Res    0.173808    sqrt( Sum f_i^2 / 3N )
----------------------------------------
   Max    1.459325    constrained

Stress-tensor-Voigt (kbar):      -11.51      -10.34       -8.30       -0.02        0.07       -0.00
(Free)E + p*V (eV/cell)   -31887.3993
Target enthalpy (eV/cell)   -31914.1688

siesta: Stress tensor (static) (eV/Ang**3):
        -0.007186   -0.000012   -0.000001
        -0.000012   -0.006451    0.000041
        -0.000001    0.000041   -0.005181

siesta: Pressure (static):         10.04965099  kBar

siesta: Stress tensor (total) (eV/Ang**3):
        -0.007186   -0.000012   -0.000001
        -0.000012   -0.006451    0.000041
        -0.000001    0.000041   -0.005181

siesta: Pressure (total):         10.04965099  kBar

* Maximum dynamic memory allocated =  1667 MB

siesta:                 ==============================
                            Begin CG move =      5
                        ==============================
k-point displ. along   2 input, could be:     0.00    0.50
 Kpoints in:            4 . Kpoints trimmed:            4

siesta: k-grid: Number of k-points =     4
siesta: k-grid: Cutoff (effective) =    12.500 Ang
siesta: k-grid: Supercell and displacements
siesta: k-grid:    3   0   0      0.000
siesta: k-grid:    0   2   0      0.000
siesta: k-grid:    0   0   1      0.000
Naive supercell factors:     3    2    2

superc: Internal auxiliary supercell:     3 x     2 x     2  =      12
superc: Number of atoms, orbitals, and projectors:   1740  23004  27756

outcell: Unit cell vectors (Ang):
        9.986821   -0.001192    0.000000
       -0.002059   17.214221    0.000000
        0.000000    0.000000   25.000000

outcell: Cell vector modules (Ang)   :    9.986821   17.214221   25.000000
outcell: Cell angles (23,13,12) (deg):     90.0000     90.0000     90.0137
outcell: Cell volume (Ang**3)        :   4297.8834
New_DM. Step:     6
Re-using DM from previous geometry...
Re-using DM without extrapolation (not allowed)
Density Matrix sparsity pattern changed.

InitMesh: MESH =   108 x   180 x   270 =     5248800
InitMesh: Mesh cutoff (required, used) =   300.000   302.184 Ry

siesta: iscf   Eharris(eV)      E_KS(eV)   FreeEng(eV)   dDmax  Ef(eV)
siesta:    1   -31914.4568   -31909.1159   -31909.1551  0.0216 -4.7620
siesta:    2   -31928.5961   -31913.2566   -31913.2797  0.3260 -5.5149
siesta:    3   -31914.3464   -31909.6679   -31909.7468  0.0177 -4.8207
siesta:    4   -31914.2682   -31910.8580   -31910.8809  0.0099 -4.9189
siesta:    5   -31914.2470   -31911.7775   -31911.8118  0.0070 -4.9152
siesta:    6   -31914.2430   -31912.5402   -31912.5836  0.0051 -4.9124
siesta:    7   -31914.2435   -31913.7890   -31913.8296  0.0035 -4.9146
siesta:    8   -31914.2503   -31913.9670   -31914.0069  0.0031 -4.9136
siesta:    9   -31914.2481   -31914.0243   -31914.0570  0.0024 -4.9142
siesta:   10   -31914.2474   -31914.1196   -31914.1533  0.0015 -4.9132
siesta:   11   -31914.2433   -31914.2019   -31914.2361  0.0010 -4.9132
siesta:   12   -31914.2426   -31914.2302   -31914.2677  0.0004 -4.9133
siesta:   13   -31914.2433   -31914.2281   -31914.2661  0.0003 -4.9132
siesta:   14   -31914.2425   -31914.2490   -31914.2862  0.0003 -4.9144
siesta:   15   -31914.2431   -31914.2445   -31914.2825  0.0002 -4.9143
siesta:   16   -31914.2429   -31914.2473   -31914.2847  0.0001 -4.9143

siesta: E_KS(eV) =           -31914.2436

siesta: Atomic forces (eV/Ang):
----------------------------------------
   Tot    0.215301    0.022712    0.013149
----------------------------------------
   Max    0.956388
   Res    0.143240    sqrt( Sum f_i^2 / 3N )
----------------------------------------
   Max    0.956388    constrained

Stress-tensor-Voigt (kbar):       -3.03       -1.34       -7.16       -0.15        0.07        0.01
(Free)E + p*V (eV/cell)   -31903.9680
Target enthalpy (eV/cell)   -31914.2813

siesta: Stress tensor (static) (eV/Ang**3):
        -0.001889   -0.000094    0.000006
        -0.000094   -0.000838    0.000041
         0.000006    0.000041   -0.004471

siesta: Pressure (static):          3.84463253  kBar

siesta: Stress tensor (total) (eV/Ang**3):
        -0.001889   -0.000094    0.000006
        -0.000094   -0.000838    0.000041
         0.000006    0.000041   -0.004471

siesta: Pressure (total):          3.84463253  kBar

cgvc: Finished line minimization    2.  Mean atomic displacement =    0.0145

* Maximum dynamic memory allocated =  1667 MB

siesta:                 ==============================
                            Begin CG move =      6
                        ==============================
k-point displ. along   2 input, could be:     0.00    0.50
 Kpoints in:            4 . Kpoints trimmed:            4

siesta: k-grid: Number of k-points =     4
siesta: k-grid: Cutoff (effective) =    12.500 Ang
siesta: k-grid: Supercell and displacements
siesta: k-grid:    3   0   0      0.000
siesta: k-grid:    0   2   0      0.000
siesta: k-grid:    0   0   1      0.000
Naive supercell factors:     3    2    2

superc: Internal auxiliary supercell:     3 x     2 x     2  =      12
superc: Number of atoms, orbitals, and projectors:   1740  23004  27756

outcell: Unit cell vectors (Ang):
       10.019957    0.002727    0.000000
        0.004691   17.191992    0.000000
        0.000000    0.000000   25.000000

outcell: Cell vector modules (Ang)   :   10.019958   17.191993   25.000000
outcell: Cell angles (23,13,12) (deg):     90.0000     90.0000     89.9688
outcell: Cell volume (Ang**3)        :   4306.5755
New_DM. Step:     7
Re-using DM from previous geometry...
Re-using DM without extrapolation (not allowed)
Density Matrix sparsity pattern changed.

InitMesh: MESH =   108 x   180 x   270 =     5248800
InitMesh: Mesh cutoff (required, used) =   300.000   302.966 Ry

siesta: iscf   Eharris(eV)      E_KS(eV)   FreeEng(eV)   dDmax  Ef(eV)
siesta:    1   -31914.4973   -31911.6768   -31911.7144  0.0293 -4.9470
siesta:    2   -31924.4089   -31913.5765   -31913.5971  0.2837 -5.2292
siesta:    3   -31914.3977   -31911.9839   -31912.0764  0.0241 -4.9319
siesta:    4   -31914.3771   -31912.4377   -31912.4627  0.0152 -4.8995
siesta:    5   -31914.3665   -31912.5271   -31912.5643  0.0165 -4.9170
siesta:    6   -31914.3793   -31913.8459   -31913.8796  0.0081 -4.9078
siesta:    7   -31914.3741   -31914.0851   -31914.1200  0.0036 -4.9252
siesta:    8   -31914.3704   -31914.2055   -31914.2367  0.0031 -4.9256
siesta:    9   -31914.3672   -31914.2403   -31914.2708  0.0021 -4.9230
siesta:   10   -31914.3657   -31914.2691   -31914.3007  0.0014 -4.9213
siesta:   11   -31914.3645   -31914.3093   -31914.3414  0.0008 -4.9196
siesta:   12   -31914.3644   -31914.3185   -31914.3513  0.0007 -4.9193
siesta:   13   -31914.3641   -31914.3458   -31914.3788  0.0005 -4.9180
siesta:   14   -31914.3638   -31914.3621   -31914.3953  0.0003 -4.9172
siesta:   15   -31914.3639   -31914.3671   -31914.4005  0.0002 -4.9178
siesta:   16   -31914.3639   -31914.3705   -31914.4038  0.0002 -4.9177
siesta:   17   -31914.3639   -31914.3719   -31914.4053  0.0002 -4.9178
siesta:   18   -31914.3639   -31914.3674   -31914.4007  0.0001 -4.9177
siesta:   19   -31914.3639   -31914.3658   -31914.3992  0.0001 -4.9178
siesta:   20   -31914.3639   -31914.3641   -31914.3974  0.0001 -4.9178
siesta:   21   -31914.3639   -31914.3629   -31914.3962  0.0001 -4.9178
siesta:   22   -31914.3639   -31914.3623   -31914.3956  0.0001 -4.9178

siesta: E_KS(eV) =           -31914.3623

siesta: Atomic forces (eV/Ang):
----------------------------------------
   Tot    0.183428    0.007058   -0.027951
----------------------------------------
   Max    0.997142
   Res    0.129825    sqrt( Sum f_i^2 / 3N )
----------------------------------------
   Max    0.997142    constrained

Stress-tensor-Voigt (kbar):        4.51       -3.28       -6.79        0.42        0.08       -0.07
(Free)E + p*V (eV/cell)   -31909.4206
Target enthalpy (eV/cell)   -31914.3956

siesta: Stress tensor (static) (eV/Ang**3):
         0.002815    0.000261   -0.000043
         0.000261   -0.002046    0.000048
        -0.000043    0.000048   -0.004235

siesta: Pressure (static):          1.85087713  kBar

siesta: Stress tensor (total) (eV/Ang**3):
         0.002815    0.000261   -0.000043
         0.000261   -0.002046    0.000048
        -0.000043    0.000048   -0.004235

siesta: Pressure (total):          1.85087713  kBar

* Maximum dynamic memory allocated =  1668 MB

siesta:                 ==============================
                            Begin CG move =      7
                        ==============================
k-point displ. along   2 input, could be:     0.00    0.50
 Kpoints in:            4 . Kpoints trimmed:            4

siesta: k-grid: Number of k-points =     4
siesta: k-grid: Cutoff (effective) =    12.500 Ang
siesta: k-grid: Supercell and displacements
siesta: k-grid:    3   0   0      0.000
siesta: k-grid:    0   2   0      0.000
siesta: k-grid:    0   0   1      0.000
Naive supercell factors:     3    2    2

superc: Internal auxiliary supercell:     3 x     2 x     2  =      12
superc: Number of atoms, orbitals, and projectors:   1740  23004  27756

outcell: Unit cell vectors (Ang):
       10.072976    0.008999    0.000000
        0.015492   17.156427    0.000000
        0.000000    0.000000   25.000000

outcell: Cell vector modules (Ang)   :   10.072980   17.156434   25.000000
outcell: Cell angles (23,13,12) (deg):     90.0000     90.0000     89.8971
outcell: Cell volume (Ang**3)        :   4320.4035
New_DM. Step:     8
Re-using DM from previous geometry...
Re-using DM without extrapolation (not allowed)
Density Matrix sparsity pattern changed.

InitMesh: MESH =   108 x   180 x   270 =     5248800
InitMesh: Mesh cutoff (required, used) =   300.000   304.224 Ry

siesta: iscf   Eharris(eV)      E_KS(eV)   FreeEng(eV)   dDmax  Ef(eV)
siesta:    1   -31914.2710   -31910.0522   -31910.0855  0.0392 -4.9213
siesta:    2   -31931.8303   -31912.8155   -31912.8321  0.3574 -5.4526
siesta:    3   -31914.1379   -31910.4769   -31910.5901  0.0324 -4.9058
siesta:    4   -31914.1012   -31911.1451   -31911.1671  0.0232 -4.8986
siesta:    5   -31914.1104   -31912.4449   -31912.4664  0.0095 -4.8909
siesta:    6   -31914.1112   -31913.1408   -31913.1633  0.0070 -4.8929
siesta:    7   -31914.0979   -31913.6635   -31913.6859  0.0044 -4.9000
siesta:    8   -31914.0907   -31913.8025   -31913.8250  0.0018 -4.8997
siesta:    9   -31914.0889   -31913.8793   -31913.9018  0.0016 -4.8963
siesta:   10   -31914.0884   -31913.9201   -31913.9427  0.0012 -4.8958
siesta:   11   -31914.0882   -31914.0000   -31914.0226  0.0006 -4.8966
siesta:   12   -31914.0881   -31914.0570   -31914.0796  0.0005 -4.8958
siesta:   13   -31914.0881   -31914.0796   -31914.1022  0.0004 -4.8956
siesta:   14   -31914.0880   -31914.0859   -31914.1085  0.0002 -4.8956
siesta:   15   -31914.0880   -31914.0834   -31914.1060  0.0001 -4.8956
siesta:   16   -31914.0880   -31914.0861   -31914.1088  0.0001 -4.8956

siesta: E_KS(eV) =           -31914.0843

siesta: Atomic forces (eV/Ang):
----------------------------------------
   Tot   -0.258417   -0.002711   -0.022209
----------------------------------------
   Max    2.379947
   Res    0.346099    sqrt( Sum f_i^2 / 3N )
----------------------------------------
   Max    2.379947    constrained

Stress-tensor-Voigt (kbar):       16.85       -7.00       -6.62        1.41        0.08       -0.05
(Free)E + p*V (eV/cell)   -31917.0008
Target enthalpy (eV/cell)   -31914.1069

siesta: Stress tensor (static) (eV/Ang**3):
         0.010514    0.000881   -0.000030
         0.000881   -0.004372    0.000051
        -0.000030    0.000051   -0.004133

siesta: Pressure (static):         -1.07317452  kBar

siesta: Stress tensor (total) (eV/Ang**3):
         0.010514    0.000881   -0.000030
         0.000881   -0.004372    0.000051
        -0.000030    0.000051   -0.004133

siesta: Pressure (total):         -1.07317452  kBar

[...]
   Max    0.399570
   Res    0.024447    sqrt( Sum f_i^2 / 3N )
----------------------------------------
   Max    0.057111    constrained

Stress-tensor-Voigt (kbar):        1.49        0.49        0.23       -0.16       -0.01       -0.15
(Free)E + p*V (eV/cell)   -31917.5120
Target enthalpy (eV/cell)   -31915.5366

siesta: Stress tensor (static) (eV/Ang**3):
         0.000933   -0.000100   -0.000091
        -0.000100    0.000303   -0.000007
        -0.000091   -0.000007    0.000143

siesta: Pressure (static):         -0.73636150  kBar

siesta: Stress tensor (total) (eV/Ang**3):
         0.000933   -0.000100   -0.000091
        -0.000100    0.000303   -0.000007
        -0.000091   -0.000007    0.000143

siesta: Pressure (total):         -0.73636150  kBar

* Maximum dynamic memory allocated =  1963 MB

siesta:                 ==============================
                            Begin CG move =    227
                        ==============================
k-point displ. along   2 input, could be:     0.00    0.50
 Kpoints in:            4 . Kpoints trimmed:            4

siesta: k-grid: Number of k-points =     4
siesta: k-grid: Cutoff (effective) =    12.500 Ang
siesta: k-grid: Supercell and displacements
siesta: k-grid:    3   0   0      0.000
siesta: k-grid:    0   2   0      0.000
siesta: k-grid:    0   0   1      0.000
Naive supercell factors:     3    2    2

superc: Internal auxiliary supercell:     3 x     2 x     2  =      12
superc: Number of atoms, orbitals, and projectors:   1740  23004  27756

outcell: Unit cell vectors (Ang):
        9.980317    0.000370    0.000000
        0.000631   17.216987    0.000000
        0.000000    0.000000   25.000000

outcell: Cell vector modules (Ang)   :    9.980317   17.216987   25.000000
outcell: Cell angles (23,13,12) (deg):     90.0000     90.0000     89.9958
outcell: Cell volume (Ang**3)        :   4295.7745
New_DM. Step:   228
Re-using DM from previous geometry...
Re-using DM without extrapolation (not allowed)
Density Matrix sparsity pattern changed.

InitMesh: MESH =   108 x   180 x   270 =     5248800
InitMesh: Mesh cutoff (required, used) =   300.000   302.087 Ry

siesta: iscf   Eharris(eV)      E_KS(eV)   FreeEng(eV)   dDmax  Ef(eV)
siesta:    1   -31915.5109   -31915.9719   -31915.9988  0.0057 -4.9321
siesta:    2   -31915.9068   -31915.4687   -31915.4998  0.0238 -4.9816
siesta:    3   -31915.5160   -31915.8997   -31915.8998  0.0048 -4.9466
siesta:    4   -31915.5124   -31915.9071   -31915.9320  0.0049 -4.9409
siesta:    5   -31915.5131   -31915.7931   -31915.8201  0.0035 -4.9426
siesta:    6   -31915.5127   -31915.5615   -31915.5879  0.0007 -4.9413
siesta:    7   -31915.5121   -31915.5230   -31915.5498  0.0002 -4.9391
siesta:    8   -31915.5119   -31915.5166   -31915.5439  0.0001 -4.9387

siesta: E_KS(eV) =           -31915.5155

siesta: Atomic forces (eV/Ang):
----------------------------------------
   Tot    0.068125    0.021976   -0.005517
----------------------------------------
   Max    0.407977
   Res    0.022911    sqrt( Sum f_i^2 / 3N )
----------------------------------------
   Max    0.042728    constrained

Stress-tensor-Voigt (kbar):        0.54        0.13        0.14       -0.04       -0.00       -0.15
(Free)E + p*V (eV/cell)   -31916.2714
Target enthalpy (eV/cell)   -31915.5430

siesta: Stress tensor (static) (eV/Ang**3):
         0.000336   -0.000022   -0.000092
        -0.000022    0.000083   -0.000000
        -0.000092   -0.000000    0.000090

siesta: Pressure (static):         -0.27169002  kBar

siesta: Stress tensor (total) (eV/Ang**3):
         0.000336   -0.000022   -0.000092
        -0.000022    0.000083   -0.000000
        -0.000092   -0.000000    0.000090

siesta: Pressure (total):         -0.27169002  kBar

cgvc: Finished line minimization   90.  Mean atomic displacement =    0.0028

* Maximum dynamic memory allocated =  1964 MB

siesta:                 ==============================
                            Begin CG move =    228
                        ==============================
k-point displ. along   2 input, could be:     0.00    0.50
 Kpoints in:            4 . Kpoints trimmed:            4

siesta: k-grid: Number of k-points =     4
siesta: k-grid: Cutoff (effective) =    12.500 Ang
siesta: k-grid: Supercell and displacements
siesta: k-grid:    3   0   0      0.000
siesta: k-grid:    0   2   0      0.000
siesta: k-grid:    0   0   1      0.000
Naive supercell factors:     3    2    2

superc: Internal auxiliary supercell:     3 x     2 x     2  =      12
superc: Number of atoms, orbitals, and projectors:   1740  23004  27756

outcell: Unit cell vectors (Ang):
        9.979237   -0.000129    0.000000
       -0.000227   17.216564    0.000000
        0.000000    0.000000   25.000000

outcell: Cell vector modules (Ang)   :    9.979237   17.216564   25.000000
outcell: Cell angles (23,13,12) (deg):     90.0000     90.0000     90.0015
outcell: Cell volume (Ang**3)        :   4295.2043
New_DM. Step:   229
Re-using DM from previous geometry...
Re-using DM without extrapolation (not allowed)
Density Matrix sparsity pattern changed.

InitMesh: MESH =   108 x   180 x   270 =     5248800
InitMesh: Mesh cutoff (required, used) =   300.000   302.102 Ry

siesta: iscf   Eharris(eV)      E_KS(eV)   FreeEng(eV)   dDmax  Ef(eV)
siesta:    1   -31915.5119   -31915.6263   -31915.6538  0.0148 -4.9368
siesta:    2   -31915.5579   -31915.5091   -31915.5375  0.0060 -4.9639
siesta:    3   -31915.5130   -31915.6087   -31915.6231  0.0125 -4.9398
siesta:    4   -31915.5125   -31915.5837   -31915.6109  0.0093 -4.9389
siesta:    5   -31915.5131   -31915.5189   -31915.5465  0.0009 -4.9402
siesta:    6   -31915.5128   -31915.5131   -31915.5403  0.0001 -4.9394
siesta:    7   -31915.5127   -31915.5125   -31915.5398  0.0000 -4.9392

siesta: E_KS(eV) =           -31915.5125

siesta: Atomic forces (eV/Ang):
----------------------------------------
   Tot    0.068637    0.025554   -0.009459
----------------------------------------
   Max    0.402559
   Res    0.021884    sqrt( Sum f_i^2 / 3N )
----------------------------------------
   Max    0.031088    constrained

Stress-tensor-Voigt (kbar):        0.25        0.02        0.12       -0.11       -0.01       -0.15
(Free)E + p*V (eV/cell)   -31915.8856
Target enthalpy (eV/cell)   -31915.5399

siesta: Stress tensor (static) (eV/Ang**3):
         0.000153   -0.000067   -0.000091
        -0.000066    0.000012   -0.000007
        -0.000091   -0.000007    0.000076

siesta: Pressure (static):         -0.12897077  kBar

siesta: Stress tensor (total) (eV/Ang**3):
         0.000153   -0.000067   -0.000091
        -0.000066    0.000012   -0.000007
        -0.000091   -0.000007    0.000076

siesta: Pressure (total):         -0.12897077  kBar

* Maximum dynamic memory allocated =  1966 MB

siesta:                 ==============================
                            Begin CG move =    229
                        ==============================
k-point displ. along   2 input, could be:     0.00    0.50
 Kpoints in:            4 . Kpoints trimmed:            4

siesta: k-grid: Number of k-points =     4
siesta: k-grid: Cutoff (effective) =    12.500 Ang
siesta: k-grid: Supercell and displacements
siesta: k-grid:    3   0   0      0.000
siesta: k-grid:    0   2   0      0.000
siesta: k-grid:    0   0   1      0.000
Naive supercell factors:     3    2    2

superc: Internal auxiliary supercell:     3 x     2 x     2  =      12
superc: Number of atoms, orbitals, and projectors:   1740  23004  27756

outcell: Unit cell vectors (Ang):
        9.977509   -0.000926    0.000000
       -0.001601   17.215888    0.000000
        0.000000    0.000000   25.000000

outcell: Cell vector modules (Ang)   :    9.977509   17.215888   25.000000
outcell: Cell angles (23,13,12) (deg):     90.0000     90.0000     90.0106
outcell: Cell volume (Ang**3)        :   4294.2920
New_DM. Step:   230
Re-using DM from previous geometry...
Re-using DM without extrapolation (not allowed)
Density Matrix sparsity pattern changed.

InitMesh: MESH =   108 x   180 x   270 =     5248800
InitMesh: Mesh cutoff (required, used) =   300.000   302.126 Ry

siesta: iscf   Eharris(eV)      E_KS(eV)   FreeEng(eV)   dDmax  Ef(eV)
siesta:    1   -31915.5117   -31915.6890   -31915.7164  0.0010 -4.9359
siesta:    2   -31915.5992   -31915.5055   -31915.5344  0.0090 -4.9702
siesta:    3   -31915.5131   -31915.6656   -31915.6733  0.0007 -4.9400
siesta:    4   -31915.5126   -31915.6590   -31915.6861  0.0006 -4.9391
siesta:    5   -31915.5131   -31915.5519   -31915.5794  0.0005 -4.9404
siesta:    6   -31915.5128   -31915.5203   -31915.5474  0.0002 -4.9393
siesta:    7   -31915.5128   -31915.5143   -31915.5416  0.0001 -4.9392

siesta: E_KS(eV) =           -31915.5134

siesta: Atomic forces (eV/Ang):
----------------------------------------
   Tot    0.059488    0.028617   -0.009535
----------------------------------------
   Max    0.392555
   Res    0.026591    sqrt( Sum f_i^2 / 3N )
----------------------------------------
   Max    0.094083    constrained

Stress-tensor-Voigt (kbar):       -0.14       -0.12        0.11       -0.21       -0.02       -0.15
(Free)E + p*V (eV/cell)   -31915.4119
Target enthalpy (eV/cell)   -31915.5406

siesta: Stress tensor (static) (eV/Ang**3):
        -0.000085   -0.000131   -0.000093
        -0.000131   -0.000072   -0.000015
        -0.000094   -0.000014    0.000067

siesta: Pressure (static):          0.04802779  kBar

siesta: Stress tensor (total) (eV/Ang**3):
        -0.000085   -0.000131   -0.000093
        -0.000131   -0.000072   -0.000015
        -0.000094   -0.000014    0.000067

siesta: Pressure (total):          0.04802779  kBar

* Maximum dynamic memory allocated =  1967 MB

siesta:                 ==============================
                            Begin CG move =    230
                        ==============================
k-point displ. along   2 input, could be:     0.00    0.50
 Kpoints in:            4 . Kpoints trimmed:            4

siesta: k-grid: Number of k-points =     4
siesta: k-grid: Cutoff (effective) =    12.500 Ang
siesta: k-grid: Supercell and displacements
siesta: k-grid:    3   0   0      0.000
siesta: k-grid:    0   2   0      0.000
siesta: k-grid:    0   0   1      0.000
Naive supercell factors:     3    2    2

superc: Internal auxiliary supercell:     3 x     2 x     2  =      12
superc: Number of atoms, orbitals, and projectors:   1740  23004  27756

outcell: Unit cell vectors (Ang):
        9.978392   -0.000518    0.000000
       -0.000899   17.216234    0.000000
        0.000000    0.000000   25.000000

outcell: Cell vector modules (Ang)   :    9.978392   17.216234   25.000000
outcell: Cell angles (23,13,12) (deg):     90.0000     90.0000     90.0060
outcell: Cell volume (Ang**3)        :   4294.7584
New_DM. Step:   231
Re-using DM from previous geometry...
Re-using DM without extrapolation (not allowed)
Density Matrix sparsity pattern changed.

InitMesh: MESH =   108 x   180 x   270 =     5248800
InitMesh: Mesh cutoff (required, used) =   300.000   302.114 Ry

siesta: iscf   Eharris(eV)      E_KS(eV)   FreeEng(eV)   dDmax  Ef(eV)
siesta:    1   -31915.5137   -31915.4231   -31915.4504  0.0005 -4.9408
siesta:    2   -31915.5261   -31915.5122   -31915.5389  0.0066 -4.9227
siesta:    3   -31915.5131   -31915.4328   -31915.4668  0.0004 -4.9395
siesta:    4   -31915.5127   -31915.4539   -31915.4811  0.0003 -4.9384
siesta:    5   -31915.5128   -31915.4965   -31915.5241  0.0002 -4.9387
siesta:    6   -31915.5129   -31915.5092   -31915.5367  0.0001 -4.9393

siesta: E_KS(eV) =           -31915.5113

siesta: Atomic forces (eV/Ang):
----------------------------------------
   Tot    0.062172    0.024988   -0.005275
----------------------------------------
   Max    0.397999
   Res    0.023276    sqrt( Sum f_i^2 / 3N )
----------------------------------------
   Max    0.060024    constrained

Stress-tensor-Voigt (kbar):        0.03       -0.06        0.12       -0.16       -0.01       -0.15
(Free)E + p*V (eV/cell)   -31915.6133
Target enthalpy (eV/cell)   -31915.5387

siesta: Stress tensor (static) (eV/Ang**3):
         0.000019   -0.000100   -0.000093
        -0.000100   -0.000040   -0.000009
        -0.000093   -0.000009    0.000072

siesta: Pressure (static):         -0.02781326  kBar

siesta: Stress tensor (total) (eV/Ang**3):
         0.000019   -0.000100   -0.000093
        -0.000100   -0.000040   -0.000009
        -0.000093   -0.000009    0.000072

siesta: Pressure (total):         -0.02781326  kBar

cgvc: Finished line minimization   91.  Mean atomic displacement =    0.0050

* Maximum dynamic memory allocated =  1967 MB

siesta:                 ==============================
                            Begin CG move =    231
                        ==============================
k-point displ. along   2 input, could be:     0.00    0.50
 Kpoints in:            4 . Kpoints trimmed:            4

siesta: k-grid: Number of k-points =     4
siesta: k-grid: Cutoff (effective) =    12.500 Ang
siesta: k-grid: Supercell and displacements
siesta: k-grid:    3   0   0      0.000
siesta: k-grid:    0   2   0      0.000
siesta: k-grid:    0   0   1      0.000
Naive supercell factors:     3    2    2

superc: Internal auxiliary supercell:     3 x     2 x     2  =      12
superc: Number of atoms, orbitals, and projectors:   1740  23004  27756

outcell: Unit cell vectors (Ang):
        9.975491    0.004114    0.000000
        0.007079   17.219254    0.000000
        0.000000    0.000000   25.000000

outcell: Cell vector modules (Ang)   :    9.975492   17.219255   25.000000
outcell: Cell angles (23,13,12) (deg):     90.0000     90.0000     89.9528
outcell: Cell volume (Ang**3)        :   4294.2621
New_DM. Step:   232
Re-using DM from previous geometry...
Re-using DM without extrapolation (not allowed)
Density Matrix sparsity pattern changed.

InitMesh: MESH =   108 x   180 x   270 =     5248800
InitMesh: Mesh cutoff (required, used) =   300.000   302.008 Ry

siesta: iscf   Eharris(eV)      E_KS(eV)   FreeEng(eV)   dDmax  Ef(eV)
siesta:    1   -31915.5129   -31915.6594   -31915.6868  0.0055 -4.9386
siesta:    2   -31915.5417   -31915.5106   -31915.5391  0.0052 -4.9594
siesta:    3   -31915.5136   -31915.6263   -31915.6463  0.0042 -4.9409
siesta:    4   -31915.5130   -31915.5429   -31915.5705  0.0011 -4.9389
siesta:    5   -31915.5133   -31915.5216   -31915.5499  0.0006 -4.9394
siesta:    6   -31915.5132   -31915.5142   -31915.5422  0.0002 -4.9394
siesta:    7   -31915.5131   -31915.5128   -31915.5407  0.0001 -4.9396

siesta: E_KS(eV) =           -31915.5127

siesta: Atomic forces (eV/Ang):
----------------------------------------
   Tot    0.077547    0.028853   -0.010684
----------------------------------------
   Max    0.388307
   Res    0.022982    sqrt( Sum f_i^2 / 3N )
----------------------------------------
   Max    0.068965    constrained

Stress-tensor-Voigt (kbar):       -0.55        0.19        0.13        0.40       -0.03       -0.15
(Free)E + p*V (eV/cell)   -31915.3370
Target enthalpy (eV/cell)   -31915.5406

siesta: Stress tensor (static) (eV/Ang**3):
        -0.000342    0.000250   -0.000093
         0.000250    0.000119   -0.000019
        -0.000093   -0.000019    0.000080

siesta: Pressure (static):          0.07596150  kBar

siesta: Stress tensor (total) (eV/Ang**3):
        -0.000342    0.000250   -0.000093
         0.000250    0.000119   -0.000019
        -0.000093   -0.000019    0.000080

siesta: Pressure (total):          0.07596150  kBar

* Maximum dynamic memory allocated =  1967 MB

siesta:                 ==============================
                            Begin CG move =    232
                        ==============================
k-point displ. along   2 input, could be:     0.00    0.50
 Kpoints in:            4 . Kpoints trimmed:            4

siesta: k-grid: Number of k-points =     4
siesta: k-grid: Cutoff (effective) =    12.500 Ang
siesta: k-grid: Supercell and displacements
siesta: k-grid:    3   0   0      0.000
siesta: k-grid:    0   2   0      0.000
siesta: k-grid:    0   0   1      0.000
Naive supercell factors:     3    2    2

superc: Internal auxiliary supercell:     3 x     2 x     2  =      12
superc: Number of atoms, orbitals, and projectors:   1740  23004  27756

outcell: Unit cell vectors (Ang):
        9.976167    0.003034    0.000000
        0.005219   17.218550    0.000000
        0.000000    0.000000   25.000000

outcell: Cell vector modules (Ang)   :    9.976168   17.218551   25.000000
outcell: Cell angles (23,13,12) (deg):     90.0000     90.0000     89.9652
outcell: Cell volume (Ang**3)        :   4294.3780
New_DM. Step:   233
Re-using DM from previous geometry...
Re-using DM without extrapolation (not allowed)
Density Matrix sparsity pattern changed.

InitMesh: MESH =   108 x   180 x   270 =     5248800
InitMesh: Mesh cutoff (required, used) =   300.000   302.032 Ry

siesta: iscf   Eharris(eV)      E_KS(eV)   FreeEng(eV)   dDmax  Ef(eV)
siesta:    1   -31915.5136   -31915.4784   -31915.5063  0.0004 -4.9398
siesta:    2   -31915.5124   -31915.5134   -31915.5412  0.0017 -4.9344
siesta:    3   -31915.5134   -31915.4853   -31915.5155  0.0003 -4.9394
siesta:    4   -31915.5134   -31915.5082   -31915.5361  0.0003 -4.9395
siesta:    5   -31915.5135   -31915.5120   -31915.5399  0.0001 -4.9398

siesta: E_KS(eV) =           -31915.5128

siesta: Atomic forces (eV/Ang):
----------------------------------------
   Tot    0.070083    0.034261   -0.013882
----------------------------------------
   Max    0.390488
   Res    0.021532    sqrt( Sum f_i^2 / 3N )
----------------------------------------
   Max    0.053564    constrained

Stress-tensor-Voigt (kbar):       -0.44        0.13        0.13        0.28       -0.03       -0.15
(Free)E + p*V (eV/cell)   -31915.3752
Target enthalpy (eV/cell)   -31915.5406

siesta: Stress tensor (static) (eV/Ang**3):
        -0.000274    0.000174   -0.000095
         0.000174    0.000079   -0.000019
        -0.000095   -0.000019    0.000080

siesta: Pressure (static):          0.06172708  kBar

siesta: Stress tensor (total) (eV/Ang**3):
        -0.000274    0.000174   -0.000095
         0.000174    0.000079   -0.000019
        -0.000095   -0.000019    0.000080

siesta: Pressure (total):          0.06172708  kBar

cgvc: Finished line minimization   92.  Mean atomic displacement =    0.0038

* Maximum dynamic memory allocated =  1967 MB

siesta:                 ==============================
                            Begin CG move =    233
                        ==============================
k-point displ. along   2 input, could be:     0.00    0.50
 Kpoints in:            4 . Kpoints trimmed:            4

siesta: k-grid: Number of k-points =     4
siesta: k-grid: Cutoff (effective) =    12.500 Ang
siesta: k-grid: Supercell and displacements
siesta: k-grid:    3   0   0      0.000
siesta: k-grid:    0   2   0      0.000
siesta: k-grid:    0   0   1      0.000
Naive supercell factors:     3    2    2

superc: Internal auxiliary supercell:     3 x     2 x     2  =      12
superc: Number of atoms, orbitals, and projectors:   1740  23004  27756

outcell: Unit cell vectors (Ang):
        9.981051    0.002016    0.000000
        0.003466   17.217325    0.000000
        0.000000    0.000000   25.000000

outcell: Cell vector modules (Ang)   :    9.981051   17.217325   25.000000
outcell: Cell angles (23,13,12) (deg):     90.0000     90.0000     89.9769
outcell: Cell volume (Ang**3)        :   4296.1748
New_DM. Step:   234
Re-using DM from previous geometry...
Re-using DM without extrapolation (not allowed)
Density Matrix sparsity pattern changed.

InitMesh: MESH =   108 x   180 x   270 =     5248800
InitMesh: Mesh cutoff (required, used) =   300.000   302.075 Ry

siesta: iscf   Eharris(eV)      E_KS(eV)   FreeEng(eV)   dDmax  Ef(eV)
siesta:    1   -31915.5183   -31915.1429   -31915.1707  0.0041 -4.9450
