Siesta Version:                                        siesta-3.1
Architecture  : x86_64-unknown-linux-gnu--unknown
Compiler flags: mpif90 -g -O2
PARALLEL version

* Running on    4 nodes in parallel
>> Start of run:  14-NOV-2019  17:10:26

                           ***********************       
                           *  WELCOME TO SIESTA  *       
                           ***********************       

reinit: Reading from standard input
************************** Dump of input data file ****************************
SystemName TiS3
SystemLabel TiS3
NumberOfAtoms 145
SpinPolarized .true.
NumberOfSpecies 4
%block ChemicalSpeciesLabel
1  22 Ti
2  16 S
3  6 C
4  12 Mg
%endblock ChemicalSpeciesLabel
XC.functional		GGA
XC.authors		PBE
PAO.BasisSize		DZP
PAO.EnergyShift		65 meV
LatticeConstant 1.0 Ang
%block LatticeParameters
9.99358 17.21068 25.00000 90.00000 90.00000 90.00002
%endblock LatticeParameters
AtomicCoordinatesFormat  Fractional
%block AtomicCoordinatesAndAtomicSpecies
0.163663	0.050038	0.094820	1
0.663663	0.050038	0.094820	1
0.163594	0.249991	0.094288	1
0.663594	0.249991	0.094288	1
0.163639	0.449965	0.094369	1
0.663639	0.449965	0.094369	1
0.163751	0.649975	0.094476	1
0.663751	0.649975	0.094476	1
0.163757	0.850033	0.094458	1
0.663757	0.850033	0.094458	1
0.413487	0.149953	0.985900	1
0.913487	0.149953	0.985900	1
0.413487	0.350002	0.985841	1
0.913487	0.350002	0.985841	1
0.413581	0.550011	0.985928	1
0.913581	0.550011	0.985928	1
0.413606	0.750004	0.985969	1
0.913606	0.750004	0.985969	1
0.413590	0.950019	0.985977	1
0.913590	0.950019	0.985977	1
0.309200	0.049948	0.924832	2
0.809200	0.049948	0.924832	2
0.309101	0.249980	0.924814	2
0.809101	0.249980	0.924814	2
0.309191	0.450056	0.924804	2
0.809191	0.450056	0.924804	2
0.309242	0.650033	0.924876	2
0.809242	0.650033	0.924876	2
0.309238	0.849994	0.924901	2
0.809238	0.849994	0.924901	2
0.268131	0.150193	0.155651	2
0.768131	0.150193	0.155651	2
0.268102	0.349954	0.155505	2
0.768102	0.349954	0.155505	2
0.268243	0.549888	0.155577	2
0.768243	0.549888	0.155577	2
0.268717	0.750000	0.155444	2
0.768717	0.750000	0.155444	2
0.268277	0.949997	0.155722	2
0.768277	0.949997	0.155722	2
0.413550	0.050028	0.057944	2
0.913550	0.050028	0.057944	2
0.413482	0.249997	0.057766	2
0.913482	0.249997	0.057766	2
0.413530	0.449968	0.057811	2
0.913530	0.449968	0.057811	2
0.413666	0.649979	0.057895	2
0.913666	0.649979	0.057895	2
0.413670	0.850024	0.057901	2
0.913670	0.850024	0.057901	2
0.163536	0.149839	0.022660	2
0.663536	0.149839	0.022660	2
0.163511	0.350017	0.022523	2
0.663511	0.350017	0.022523	2
0.163632	0.550030	0.022628	2
0.663632	0.550030	0.022628	2
0.163640	0.750000	0.022689	2
0.663640	0.750000	0.022689	2
0.163646	0.950106	0.022753	2
0.663646	0.950106	0.022753	2
0.018186	0.049938	0.924919	2
0.518186	0.049938	0.924919	2
0.018080	0.249965	0.924825	2
0.518080	0.249965	0.924825	2
0.018170	0.450049	0.924876	2
0.518170	0.450049	0.924876	2
0.018230	0.650037	0.924945	2
0.518230	0.650037	0.924945	2
0.018226	0.849983	0.924966	2
0.518226	0.849983	0.924966	2
0.058956	0.150189	0.155585	2
0.558956	0.150189	0.155585	2
0.058987	0.349927	0.155453	2
0.558987	0.349927	0.155453	2
0.059127	0.549875	0.155568	2
0.559127	0.549875	0.155568	2
0.059611	0.749998	0.155813	2
0.559611	0.749998	0.155813	2
0.059104	0.949995	0.155695	2
0.559104	0.949995	0.155695	2
0.185211	0.208316	0.284927	3
0.685211	0.208316	0.284927	3
0.185215	0.458326	0.284927	3
0.685215	0.458326	0.284927	3
0.185211	0.708317	0.284927	3
0.685211	0.708317	0.284927	3
0.185211	0.958312	0.284927	3
0.685211	0.958312	0.284927	3
0.435211	0.208318	0.284927	3
0.935211	0.208318	0.284927	3
0.435213	0.458325	0.284927	3
0.935213	0.458325	0.284927	3
0.435210	0.708318	0.284927	3
0.935210	0.708318	0.284927	3
0.435210	0.958315	0.284927	3
0.935210	0.958315	0.284927	3
0.185214	0.041673	0.284927	3
0.685214	0.041673	0.284927	3
0.185212	0.291683	0.284927	3
0.685212	0.291683	0.284927	3
0.185212	0.541687	0.284927	3
0.685212	0.541687	0.284927	3
0.185211	0.791681	0.284927	3
0.685211	0.791681	0.284927	3
0.435212	0.041674	0.284927	3
0.935212	0.041674	0.284927	3
0.435211	0.291682	0.284927	3
0.935211	0.291682	0.284927	3
0.435212	0.541685	0.284927	3
0.935212	0.541685	0.284927	3
0.435210	0.791680	0.284927	3
0.935210	0.791680	0.284927	3
0.060212	0.083313	0.284927	3
0.560212	0.083313	0.284927	3
0.060210	0.333321	0.284927	3
0.560210	0.333321	0.284927	3
0.060213	0.583319	0.284927	3
0.560213	0.583319	0.284927	3
0.060212	0.833315	0.284927	3
0.560212	0.833315	0.284927	3
0.310214	0.083313	0.284927	3
0.810214	0.083313	0.284927	3
0.310216	0.333320	0.284927	3
0.810216	0.333320	0.284927	3
0.310215	0.583318	0.284927	3
0.810215	0.583318	0.284927	3
0.310212	0.833316	0.284927	3
0.810212	0.833316	0.284927	3
0.060210	0.166679	0.284927	3
0.560210	0.166679	0.284927	3
0.060213	0.416687	0.284927	3
0.560213	0.416687	0.284927	3
0.060213	0.666684	0.284927	3
0.560213	0.666684	0.284927	3
0.060212	0.916680	0.284927	3
0.560212	0.916680	0.284927	3
0.310216	0.166679	0.284927	3
0.810216	0.166679	0.284927	3
0.310216	0.416686	0.284927	3
0.810216	0.416686	0.284927	3
0.310212	0.666683	0.284927	3
0.810212	0.666683	0.284927	3
0.310214	0.916681	0.284927	3
0.810214	0.916681	0.284927	3
0.663660	0.050040	0.222374	4
%endblock AtomicCoordinatesAndAtomicSpecies
DM.MixingWeight		0.05
DM.NumberPulay		8
DM.Tolerance		1.d-4
MaxSCFIterations		300
MD.TypeOfRun		CG
MD.VariableCell		.true.
MD.MaxForceTol		0.01 eV/Ang
MD.NumCGsteps		1000
#MD.MaxCGDispl		0.15 Ang
%block GeometryConstraints
 stress 3 4 5
 position  1 0.0  0.0  1.0
%endblock GeometryConstraints
MeshCutoff		300.0 Ry
WriteCoorXmol		yes
%block kgrid_Monkhorst_Pack
   3   0   0  0.0
   0   2   0  0.0
   0   0   1  0.0
%endblock Kgrid_Monkhorst_Pack
UseSaveData           .true.
SaveRho                 .true.       # Write valence pseudocharge at the mesh
************************** End of input data file *****************************

reinit: -----------------------------------------------------------------------
reinit: System Name: TiS3
reinit: -----------------------------------------------------------------------
reinit: System Label: TiS3                                                        
reinit: -----------------------------------------------------------------------

initatom: Reading input for the pseudopotentials and atomic orbitals ----------
 Species number:            1  Label: Ti Atomic number:          22
 Species number:            2  Label: S Atomic number:          16
 Species number:            3  Label: C Atomic number:           6
 Species number:            4  Label: Mg Atomic number:          12
Ground state valence configuration:   4s02  3d02
Reading pseudopotential information in formatted form from Ti.psf

Valence configuration for pseudopotential generation:
4s( 2.00) rc: 2.71
4p( 0.00) rc: 2.71
3d( 2.00) rc: 2.45
4f( 0.00) rc: 2.45
Ground state valence configuration:   3s02  3p04
Reading pseudopotential information in formatted form from S.psf

Valence configuration for pseudopotential generation:
3s( 2.00) rc: 1.61
3p( 4.00) rc: 1.76
3d( 0.00) rc: 1.92
4f( 0.00) rc: 1.92
Ground state valence configuration:   2s02  2p02
Reading pseudopotential information in formatted form from C.psf

Valence configuration for pseudopotential generation:
2s( 2.00) rc: 1.54
2p( 2.00) rc: 1.54
3d( 0.00) rc: 1.54
4f( 0.00) rc: 1.54
Ground state valence configuration:   3s02
Reading pseudopotential information in formatted form from Mg.psf

Valence configuration for pseudopotential generation:
3s( 2.00) rc: 2.18
3p( 0.00) rc: 2.56
3d( 0.00) rc: 2.56
4f( 0.00) rc: 2.56
For Ti, standard SIESTA heuristics set lmxkb to 3
 (one more than the basis l, including polarization orbitals).
Use PS.lmax or PS.KBprojectors blocks to override.
For S, standard SIESTA heuristics set lmxkb to 3
 (one more than the basis l, including polarization orbitals).
Use PS.lmax or PS.KBprojectors blocks to override.
For C, standard SIESTA heuristics set lmxkb to 3
 (one more than the basis l, including polarization orbitals).
Use PS.lmax or PS.KBprojectors blocks to override.
For Mg, standard SIESTA heuristics set lmxkb to 2
 (one more than the basis l, including polarization orbitals).
Use PS.lmax or PS.KBprojectors blocks to override.

<basis_specs>
===============================================================================
Ti                   Z=  22    Mass=  47.880        Charge= 0.17977+309
Lmxo=2 Lmxkb= 3    BasisType=split      Semic=F
L=0  Nsemic=0  Cnfigmx=4
          n=1  nzeta=2  polorb=1
            splnorm:   0.15000    
               vcte:    0.0000    
               rinn:    0.0000    
                rcs:    0.0000      0.0000    
            lambdas:    1.0000      1.0000    
L=1  Nsemic=0  Cnfigmx=4
L=2  Nsemic=0  Cnfigmx=3
          n=1  nzeta=2  polorb=0
            splnorm:   0.15000    
               vcte:    0.0000    
               rinn:    0.0000    
                rcs:    0.0000      0.0000    
            lambdas:    1.0000      1.0000    
-------------------------------------------------------------------------------
L=0  Nkbl=1  erefs: 0.17977+309
L=1  Nkbl=1  erefs: 0.17977+309
L=2  Nkbl=1  erefs: 0.17977+309
L=3  Nkbl=1  erefs: 0.17977+309
===============================================================================
</basis_specs>

atom: Called for Ti                    (Z =  22)

read_vps: Pseudopotential generation method:
read_vps: ATM3      Troullier-Martins                       
Total valence charge:    4.00000

read_vps: Pseudopotential includes a core correction:
read_vps: Pseudo-core for xc-correction

xc_check: Exchange-correlation functional:
xc_check: GGA Perdew, Burke & Ernzerhof 1996
V l=0 = -2*Zval/r beyond r=  3.2266
V l=1 = -2*Zval/r beyond r=  3.2266
V l=2 = -2*Zval/r beyond r=  3.2266
V l=3 = -2*Zval/r beyond r=  3.2266
All V_l potentials equal beyond r=  2.6749
This should be close to max(r_c) in ps generation
All pots = -2*Zval/r beyond r=  3.2266

VLOCAL1: 99.0% of the norm of Vloc inside      6.067 Ry
VLOCAL1: 99.9% of the norm of Vloc inside     13.826 Ry
atom: Maximum radius for 4*pi*r*r*local-pseudopot. charge    3.18650
atom: Maximum radius for r*vlocal+2*Zval:    2.77713
GHOST: No ghost state for L =  0
GHOST: No ghost state for L =  1
GHOST: No ghost state for L =  2
GHOST: No ghost state for L =  3

KBgen: Kleinman-Bylander projectors: 
   l= 0   rc=  3.656209   el= -0.325100   Ekb=  2.704161   kbcos=  0.283955
   l= 1   rc=  3.748769   el= -0.108822   Ekb=  1.406241   kbcos=  0.273406
   l= 2   rc=  3.267166   el= -0.324546   Ekb= -7.701284   kbcos= -0.636873
   l= 3   rc=  3.990551   el=  0.003060   Ekb= -1.295170   kbcos= -0.013833

KBgen: Total number of  Kleinman-Bylander projectors:   16
atom: -------------------------------------------------------------------------

atom: SANKEY-TYPE ORBITALS:
atom: Selected multiple-zeta basis: split     

SPLIT: Orbitals with angular momentum L= 0

SPLIT: Basis orbitals for state 4s

SPLIT: PAO cut-off radius determined from an
SPLIT: energy shift=  0.004777 Ry

   izeta = 1
                 lambda =    1.000000
                     rc =    8.448122
                 energy =   -0.320243
                kinetic =    0.225933
    potential(screened) =   -0.546176
       potential(ionic) =   -2.398113

   izeta = 2
                 rmatch =    7.181023
              splitnorm =    0.150000
                 energy =   -0.277986
                kinetic =    0.361117
    potential(screened) =   -0.639103
       potential(ionic) =   -2.603312

SPLIT: Orbitals with angular momentum L= 2

SPLIT: Basis orbitals for state 3d

SPLIT: PAO cut-off radius determined from an
SPLIT: energy shift=  0.004777 Ry

   izeta = 1
                 lambda =    1.000000
                     rc =    5.806269
                 energy =   -0.319832
                kinetic =    5.305924
    potential(screened) =   -5.625757
       potential(ionic) =   -8.134583

   izeta = 2
                 rmatch =    3.107819
              splitnorm =    0.150000
                 energy =   -0.130887
                kinetic =    7.291131
    potential(screened) =   -7.422018
       potential(ionic) =  -10.057457

POLgen: Perturbative polarization orbital with L=  1

POLgen: Polarization orbital for state 4s

   izeta = 1
                     rc =    8.448122
                 energy =   -0.098258
                kinetic =    0.420436
    potential(screened) =   -0.518694
       potential(ionic) =   -2.271734
atom: Total number of Sankey-type orbitals: 15

atm_pop: Valence configuration (for local Pseudopot. screening):
 4s( 2.00)                                                            
 4p( 0.00)                                                            
 3d( 2.00)                                                            
Vna: chval, zval:    4.00000   4.00000

Vna:  Cut-off radius for the neutral-atom potential:   8.448122
comcore: Pseudo-core radius Rcore=  4.578782

atom: _________________________________________________________________________

<basis_specs>
===============================================================================
S                    Z=  16    Mass=  32.070        Charge= 0.17977+309
Lmxo=1 Lmxkb= 3    BasisType=split      Semic=F
L=0  Nsemic=0  Cnfigmx=3
          n=1  nzeta=2  polorb=0
            splnorm:   0.15000    
               vcte:    0.0000    
               rinn:    0.0000    
                rcs:    0.0000      0.0000    
            lambdas:    1.0000      1.0000    
L=1  Nsemic=0  Cnfigmx=3
          n=1  nzeta=2  polorb=1
            splnorm:   0.15000    
               vcte:    0.0000    
               rinn:    0.0000    
                rcs:    0.0000      0.0000    
            lambdas:    1.0000      1.0000    
-------------------------------------------------------------------------------
L=0  Nkbl=1  erefs: 0.17977+309
L=1  Nkbl=1  erefs: 0.17977+309
L=2  Nkbl=1  erefs: 0.17977+309
L=3  Nkbl=1  erefs: 0.17977+309
===============================================================================
</basis_specs>

atom: Called for S                     (Z =  16)

read_vps: Pseudopotential generation method:
read_vps: ATM3      Troullier-Martins                       
Total valence charge:    6.00000

read_vps: Pseudopotential includes a core correction:
read_vps: Pseudo-core for xc-correction

xc_check: Exchange-correlation functional:
xc_check: GGA Perdew, Burke & Ernzerhof 1996
V l=0 = -2*Zval/r beyond r=  1.7157
V l=1 = -2*Zval/r beyond r=  1.7813
V l=2 = -2*Zval/r beyond r=  1.8962
V l=3 = -2*Zval/r beyond r=  1.8962
All V_l potentials equal beyond r=  1.8962
This should be close to max(r_c) in ps generation
All pots = -2*Zval/r beyond r=  1.8962

VLOCAL1: 99.0% of the norm of Vloc inside     12.073 Ry
VLOCAL1: 99.9% of the norm of Vloc inside     27.515 Ry
atom: Maximum radius for 4*pi*r*r*local-pseudopot. charge    2.28723
atom: Maximum radius for r*vlocal+2*Zval:    1.99338
GHOST: No ghost state for L =  0
GHOST: No ghost state for L =  1
GHOST: No ghost state for L =  2
GHOST: No ghost state for L =  3

KBgen: Kleinman-Bylander projectors: 
   l= 0   rc=  2.095595   el= -1.260012   Ekb=  7.575815   kbcos=  0.308447
   l= 1   rc=  2.148649   el= -0.516050   Ekb=  2.724996   kbcos=  0.294943
   l= 2   rc=  2.175677   el=  0.001998   Ekb= -2.719245   kbcos= -0.053867
   l= 3   rc=  2.345140   el=  0.003105   Ekb= -0.697074   kbcos= -0.004230

KBgen: Total number of  Kleinman-Bylander projectors:   16
atom: -------------------------------------------------------------------------

atom: SANKEY-TYPE ORBITALS:
atom: Selected multiple-zeta basis: split     

SPLIT: Orbitals with angular momentum L= 0

SPLIT: Basis orbitals for state 3s

SPLIT: PAO cut-off radius determined from an
SPLIT: energy shift=  0.004777 Ry

   izeta = 1
                 lambda =    1.000000
                     rc =    4.842249
                 energy =   -1.255602
                kinetic =    0.842930
    potential(screened) =   -2.098533
       potential(ionic) =   -7.019684

   izeta = 2
                 rmatch =    3.542623
              splitnorm =    0.150000
                 energy =   -1.124633
                kinetic =    1.297137
    potential(screened) =   -2.421770
       potential(ionic) =   -7.574141

SPLIT: Orbitals with angular momentum L= 1

SPLIT: Basis orbitals for state 3p

SPLIT: PAO cut-off radius determined from an
SPLIT: energy shift=  0.004777 Ry

   izeta = 1
                 lambda =    1.000000
                     rc =    6.064098
                 energy =   -0.511517
                kinetic =    1.429029
    potential(screened) =   -1.940546
       potential(ionic) =   -6.510685

   izeta = 2
                 rmatch =    3.964470
              splitnorm =    0.150000
                 energy =   -0.369917
                kinetic =    2.112725
    potential(screened) =   -2.482643
       potential(ionic) =   -7.463487

POLgen: Perturbative polarization orbital with L=  2

POLgen: Polarization orbital for state 3p

   izeta = 1
                     rc =    6.064098
                 energy =    0.629859
                kinetic =    1.964668
    potential(screened) =   -1.334809
       potential(ionic) =   -5.430423
atom: Total number of Sankey-type orbitals: 13

atm_pop: Valence configuration (for local Pseudopot. screening):
 3s( 2.00)                                                            
 3p( 4.00)                                                            
Vna: chval, zval:    6.00000   6.00000

Vna:  Cut-off radius for the neutral-atom potential:   6.064098
comcore: Pseudo-core radius Rcore=  2.496399

atom: _________________________________________________________________________

<basis_specs>
===============================================================================
C                    Z=   6    Mass=  12.010        Charge= 0.17977+309
Lmxo=1 Lmxkb= 3    BasisType=split      Semic=F
L=0  Nsemic=0  Cnfigmx=2
          n=1  nzeta=2  polorb=0
            splnorm:   0.15000    
               vcte:    0.0000    
               rinn:    0.0000    
                rcs:    0.0000      0.0000    
            lambdas:    1.0000      1.0000    
L=1  Nsemic=0  Cnfigmx=2
          n=1  nzeta=2  polorb=1
            splnorm:   0.15000    
               vcte:    0.0000    
               rinn:    0.0000    
                rcs:    0.0000      0.0000    
            lambdas:    1.0000      1.0000    
-------------------------------------------------------------------------------
L=0  Nkbl=1  erefs: 0.17977+309
L=1  Nkbl=1  erefs: 0.17977+309
L=2  Nkbl=1  erefs: 0.17977+309
L=3  Nkbl=1  erefs: 0.17977+309
===============================================================================
</basis_specs>

atom: Called for C                     (Z =   6)

read_vps: Pseudopotential generation method:
read_vps: ATM3      Troullier-Martins                       
Total valence charge:    4.00000

read_vps: Pseudopotential includes a core correction:
read_vps: Pseudo-core for xc-correction

xc_check: Exchange-correlation functional:
xc_check: GGA Perdew, Burke & Ernzerhof 1996
V l=0 = -2*Zval/r beyond r=  1.5227
V l=1 = -2*Zval/r beyond r=  1.5227
V l=2 = -2*Zval/r beyond r=  1.5227
V l=3 = -2*Zval/r beyond r=  1.5038
All V_l potentials equal beyond r=  1.5227
This should be close to max(r_c) in ps generation
All pots = -2*Zval/r beyond r=  1.5227

VLOCAL1: 99.0% of the norm of Vloc inside     18.722 Ry
VLOCAL1: 99.9% of the norm of Vloc inside     42.668 Ry
atom: Maximum radius for 4*pi*r*r*local-pseudopot. charge    1.83678
atom: Maximum radius for r*vlocal+2*Zval:    1.58088
GHOST: No ghost state for L =  0
GHOST: No ghost state for L =  1
GHOST: No ghost state for L =  2
GHOST: No ghost state for L =  3

KBgen: Kleinman-Bylander projectors: 
   l= 0   rc=  1.704034   el= -1.009801   Ekb=  5.335044   kbcos=  0.316824
   l= 1   rc=  1.704034   el= -0.388707   Ekb= -3.785862   kbcos= -0.366464
   l= 2   rc=  1.791422   el=  0.001971   Ekb= -0.970471   kbcos= -0.009212
   l= 3   rc=  1.859892   el=  0.003065   Ekb= -0.399525   kbcos= -0.001223

KBgen: Total number of  Kleinman-Bylander projectors:   16
atom: -------------------------------------------------------------------------

atom: SANKEY-TYPE ORBITALS:
atom: Selected multiple-zeta basis: split     

SPLIT: Orbitals with angular momentum L= 0

SPLIT: Basis orbitals for state 2s

SPLIT: PAO cut-off radius determined from an
SPLIT: energy shift=  0.004777 Ry

   izeta = 1
                 lambda =    1.000000
                     rc =    4.870301
                 energy =   -1.004978
                kinetic =    0.843912
    potential(screened) =   -1.848890
       potential(ionic) =   -5.399930

   izeta = 2
                 rmatch =    3.475094
              splitnorm =    0.150000
                 energy =   -0.867524
                kinetic =    1.299872
    potential(screened) =   -2.167396
       potential(ionic) =   -5.961732

SPLIT: Orbitals with angular momentum L= 1

SPLIT: Basis orbitals for state 2p

SPLIT: PAO cut-off radius determined from an
SPLIT: energy shift=  0.004777 Ry

   izeta = 1
                 lambda =    1.000000
                     rc =    6.099293
                 energy =   -0.384291
                kinetic =    2.361393
    potential(screened) =   -2.745684
       potential(ionic) =   -6.151019

   izeta = 2
                 rmatch =    3.699245
              splitnorm =    0.150000
                 energy =   -0.263576
                kinetic =    3.460758
    potential(screened) =   -3.724335
       potential(ionic) =   -7.494953

POLgen: Perturbative polarization orbital with L=  2

POLgen: Polarization orbital for state 2p

   izeta = 1
                     rc =    6.099293
                 energy =    1.042694
                kinetic =    2.181445
    potential(screened) =   -1.138752
       potential(ionic) =   -3.900921
atom: Total number of Sankey-type orbitals: 13

atm_pop: Valence configuration (for local Pseudopot. screening):
 2s( 2.00)                                                            
 2p( 2.00)                                                            
Vna: chval, zval:    4.00000   4.00000

Vna:  Cut-off radius for the neutral-atom potential:   6.099293
comcore: Pseudo-core radius Rcore=  1.791422

atom: _________________________________________________________________________

<basis_specs>
===============================================================================
Mg                   Z=  12    Mass=  24.310        Charge= 0.17977+309
Lmxo=0 Lmxkb= 2    BasisType=split      Semic=F
L=0  Nsemic=0  Cnfigmx=3
          n=1  nzeta=2  polorb=1
            splnorm:   0.15000    
               vcte:    0.0000    
               rinn:    0.0000    
                rcs:    0.0000      0.0000    
            lambdas:    1.0000      1.0000    
-------------------------------------------------------------------------------
L=0  Nkbl=1  erefs: 0.17977+309
L=1  Nkbl=1  erefs: 0.17977+309
L=2  Nkbl=1  erefs: 0.17977+309
===============================================================================
</basis_specs>

atom: Called for Mg                    (Z =  12)

read_vps: Pseudopotential generation method:
read_vps: ATM3      Troullier-Martins                       
Total valence charge:    2.00000

read_vps: Pseudopotential includes a core correction:
read_vps: Pseudo-core for xc-correction

xc_check: Exchange-correlation functional:
xc_check: GGA Perdew, Burke & Ernzerhof 1996
V l=0 = -2*Zval/r beyond r=  2.7941
V l=1 = -2*Zval/r beyond r=  2.7941
V l=2 = -2*Zval/r beyond r=  2.7941
All V_l potentials equal beyond r=  2.5282
This should be close to max(r_c) in ps generation
All pots = -2*Zval/r beyond r=  2.7941

VLOCAL1: 99.0% of the norm of Vloc inside      6.791 Ry
VLOCAL1: 99.9% of the norm of Vloc inside     15.477 Ry
atom: Maximum radius for 4*pi*r*r*local-pseudopot. charge    2.97435
atom: Maximum radius for r*vlocal+2*Zval:    2.56001
GHOST: No ghost state for L =  0
GHOST: No ghost state for L =  1
GHOST: No ghost state for L =  2

KBgen: Kleinman-Bylander projectors: 
   l= 0   rc=  3.088009   el= -0.345349   Ekb=  3.255086   kbcos=  0.241251
   l= 1   rc=  3.206016   el= -0.098276   Ekb=  1.114388   kbcos=  0.231681
   l= 2   rc=  3.328532   el=  0.002057   Ekb= -0.689313   kbcos= -0.054276

KBgen: Total number of  Kleinman-Bylander projectors:    9
atom: -------------------------------------------------------------------------

atom: SANKEY-TYPE ORBITALS:
atom: Selected multiple-zeta basis: split     

SPLIT: Orbitals with angular momentum L= 0

SPLIT: Basis orbitals for state 3s

SPLIT: PAO cut-off radius determined from an
SPLIT: energy shift=  0.004777 Ry

   izeta = 1
                 lambda =    1.000000
                     rc =    8.085463
                 energy =   -0.341159
                kinetic =    0.253722
    potential(screened) =   -0.594882
       potential(ionic) =   -1.297409

   izeta = 2
                 rmatch =    6.619780
              splitnorm =    0.150000
                 energy =   -0.297738
                kinetic =    0.397438
    potential(screened) =   -0.695176
       potential(ionic) =   -1.426576

POLgen: Perturbative polarization orbital with L=  1

POLgen: Polarization orbital for state 3s

   izeta = 1
                     rc =    8.085463
                 energy =   -0.055232
                kinetic =    0.490910
    potential(screened) =   -0.546142
       potential(ionic) =   -1.238823
atom: Total number of Sankey-type orbitals:  5

atm_pop: Valence configuration (for local Pseudopot. screening):
 3s( 2.00)                                                            
Vna: chval, zval:    2.00000   2.00000

Vna:  Cut-off radius for the neutral-atom potential:   8.085463
comcore: Pseudo-core radius Rcore=  3.915882

atom: _________________________________________________________________________

prinput: Basis input ----------------------------------------------------------

PAO.BasisType split     

%block ChemicalSpeciesLabel
    1   22 Ti                      # Species index, atomic number, species label
    2   16 S                       # Species index, atomic number, species label
    3    6 C                       # Species index, atomic number, species label
    4   12 Mg                      # Species index, atomic number, species label
%endblock ChemicalSpeciesLabel

%block PAO.Basis                 # Define Basis set
Ti                    2                    # Species label, number of l-shells
 n=4   0   2 P   1                   # n, l, Nzeta, Polarization, NzetaPol
   8.448      7.181   
   1.000      1.000   
 n=3   2   2                         # n, l, Nzeta 
   5.806      3.108   
   1.000      1.000   
S                     2                    # Species label, number of l-shells
 n=3   0   2                         # n, l, Nzeta 
   4.842      3.543   
   1.000      1.000   
 n=3   1   2 P   1                   # n, l, Nzeta, Polarization, NzetaPol
   6.064      3.964   
   1.000      1.000   
C                     2                    # Species label, number of l-shells
 n=2   0   2                         # n, l, Nzeta 
   4.870      3.475   
   1.000      1.000   
 n=2   1   2 P   1                   # n, l, Nzeta, Polarization, NzetaPol
   6.099      3.699   
   1.000      1.000   
Mg                    1                    # Species label, number of l-shells
 n=3   0   2 P   1                   # n, l, Nzeta, Polarization, NzetaPol
   8.085      6.620   
   1.000      1.000   
%endblock PAO.Basis

prinput: ----------------------------------------------------------------------

coor:   Atomic-coordinates input format  =     Fractional

siesta: WARNING: XV file not found

siesta: Atomic coordinates (Bohr) and species
siesta:      3.09080   1.62741   4.47960  1        1
siesta:     12.53337   1.62741   4.47960  1        2
siesta:      3.08949   8.13058   4.45446  1        3
siesta:     12.53206   8.13058   4.45446  1        4
siesta:      3.09034  14.63443   4.45829  1        5
siesta:     12.53291  14.63443   4.45829  1        6
siesta:      3.09245  21.13945   4.46335  1        7
siesta:     12.53502  21.13945   4.46335  1        8
siesta:      3.09256  27.64604   4.46250  1        9
siesta:     12.53513  27.64604   4.46250  1       10
siesta:      7.80876   4.87699  46.57704  1       11
siesta:     17.25133   4.87699  46.57704  1       12
siesta:      7.80875  11.38328  46.57426  1       13
siesta:     17.25132  11.38328  46.57426  1       14
siesta:      7.81053  17.88827  46.57837  1       15
siesta:     17.25310  17.88827  46.57837  1       16
siesta:      7.81100  24.39274  46.58030  1       17
siesta:     17.25357  24.39274  46.58030  1       18
siesta:      7.81069  30.89793  46.58068  1       19
siesta:     17.25326  30.89793  46.58068  1       20
siesta:      5.83928   1.62448  43.69200  2       21
siesta:     15.28185   1.62448  43.69200  2       22
siesta:      5.83741   8.13022  43.69115  2       23
siesta:     15.27998   8.13022  43.69115  2       24
siesta:      5.83911  14.63739  43.69067  2       25
siesta:     15.28168  14.63739  43.69067  2       26
siesta:      5.84007  21.14134  43.69408  2       27
siesta:     15.28264  21.14134  43.69408  2       28
siesta:      5.83999  27.64477  43.69526  2       29
siesta:     15.28256  27.64477  43.69526  2       30
siesta:      5.06369   4.88480   7.35345  2       31
siesta:     14.50626   4.88480   7.35345  2       32
siesta:      5.06314  11.38172   7.34655  2       33
siesta:     14.50571  11.38172   7.34655  2       34
siesta:      5.06580  17.88427   7.34995  2       35
siesta:     14.50837  17.88427   7.34995  2       36
siesta:      5.07475  24.39261   7.34367  2       37
siesta:     14.51732  24.39261   7.34367  2       38
siesta:      5.06644  30.89721   7.35680  2       39
siesta:     14.50901  30.89721   7.35680  2       40
siesta:      7.80995   1.62708   2.73746  2       41
siesta:     17.25252   1.62708   2.73746  2       42
siesta:      7.80866   8.13077   2.72905  2       43
siesta:     17.25123   8.13077   2.72905  2       44
siesta:      7.80957  14.63453   2.73118  2       45
siesta:     17.25213  14.63453   2.73118  2       46
siesta:      7.81213  21.13958   2.73514  2       47
siesta:     17.25470  21.13958   2.73514  2       48
siesta:      7.81220  27.64574   2.73543  2       49
siesta:     17.25477  27.64574   2.73543  2       50
siesta:      3.08840   4.87329   1.07053  2       51
siesta:     12.53097   4.87329   1.07053  2       52
siesta:      3.08792  11.38377   1.06406  2       53
siesta:     12.53049  11.38377   1.06406  2       54
siesta:      3.09021  17.88889   1.06902  2       55
siesta:     12.53277  17.88889   1.06902  2       56
siesta:      3.09036  24.39261   1.07190  2       57
siesta:     12.53292  24.39261   1.07190  2       58
siesta:      3.09047  30.90076   1.07492  2       59
siesta:     12.53303  30.90076   1.07492  2       60
siesta:      0.34344   1.62416  43.69611  2       61
siesta:      9.78601   1.62416  43.69611  2       62
siesta:      0.34144   8.12973  43.69167  2       63
siesta:      9.78401   8.12973  43.69167  2       64
siesta:      0.34314  14.63716  43.69408  2       65
siesta:      9.78571  14.63716  43.69408  2       66
siesta:      0.34427  21.14147  43.69734  2       67
siesta:      9.78684  21.14147  43.69734  2       68
siesta:      0.34419  27.64441  43.69833  2       69
siesta:      9.78676  27.64441  43.69833  2       70
siesta:      1.11339   4.88467   7.35033  2       71
siesta:     10.55596   4.88467   7.35033  2       72
siesta:      1.11397  11.38085   7.34409  2       73
siesta:     10.55654  11.38085   7.34409  2       74
siesta:      1.11662  17.88385   7.34953  2       75
siesta:     10.55918  17.88385   7.34953  2       76
siesta:      1.12575  24.39255   7.36110  2       77
siesta:     10.56832  24.39255   7.36110  2       78
siesta:      1.11618  30.89715   7.35553  2       79
siesta:     10.55874  30.89715   7.35553  2       80
siesta:      3.49773   6.77516  13.46086  3       81
siesta:     12.94030   6.77516  13.46086  3       82
siesta:      3.49781  14.90636  13.46086  3       83
siesta:     12.94037  14.90636  13.46086  3       84
siesta:      3.49773  23.03694  13.46086  3       85
siesta:     12.94030  23.03694  13.46086  3       86
siesta:      3.49772  31.16765  13.46086  3       87
siesta:     12.94029  31.16765  13.46086  3       88
siesta:      8.21902   6.77523  13.46086  3       89
siesta:     17.66159   6.77523  13.46086  3       90
siesta:      8.21905  14.90633  13.46086  3       91
siesta:     17.66162  14.90633  13.46086  3       92
siesta:      8.21899  23.03697  13.46086  3       93
siesta:     17.66156  23.03697  13.46086  3       94
siesta:      8.21899  31.16774  13.46086  3       95
siesta:     17.66156  31.16774  13.46086  3       96
siesta:      3.49779   1.35535  13.46086  3       97
siesta:     12.94036   1.35535  13.46086  3       98
siesta:      3.49775   9.48655  13.46086  3       99
siesta:     12.94032   9.48655  13.46086  3      100
siesta:      3.49775  17.61755  13.46086  3      101
siesta:     12.94032  17.61755  13.46086  3      102
siesta:      3.49773  25.74822  13.46086  3      103
siesta:     12.94029  25.74822  13.46086  3      104
siesta:      8.21904   1.35538  13.46086  3      105
siesta:     17.66161   1.35538  13.46086  3      106
siesta:      8.21902   9.48652  13.46086  3      107
siesta:     17.66158   9.48652  13.46086  3      108
siesta:      8.21903  17.61748  13.46086  3      109
siesta:     17.66160  17.61748  13.46086  3      110
siesta:      8.21899  25.74819  13.46086  3      111
siesta:     17.66156  25.74819  13.46086  3      112
siesta:      1.13711   2.70963  13.46086  3      113
siesta:     10.57968   2.70963  13.46086  3      114
siesta:      1.13707  10.84076  13.46086  3      115
siesta:     10.57964  10.84076  13.46086  3      116
siesta:      1.13712  18.97157  13.46086  3      117
siesta:     10.57969  18.97157  13.46086  3      118
siesta:      1.13710  27.10231  13.46086  3      119
siesta:     10.57967  27.10231  13.46086  3      120
siesta:      5.85843   2.70963  13.46086  3      121
siesta:     15.30100   2.70963  13.46086  3      122
siesta:      5.85847  10.84073  13.46086  3      123
siesta:     15.30104  10.84073  13.46086  3      124
siesta:      5.85845  18.97153  13.46086  3      125
siesta:     15.30101  18.97153  13.46086  3      126
siesta:      5.85839  27.10234  13.46086  3      127
siesta:     15.30095  27.10234  13.46086  3      128
siesta:      1.13707   5.42098  13.46086  3      129
siesta:     10.57964   5.42098  13.46086  3      130
siesta:      1.13713  13.55211  13.46086  3      131
siesta:     10.57969  13.55211  13.46086  3      132
siesta:      1.13712  21.68289  13.46086  3      133
siesta:     10.57969  21.68289  13.46086  3      134
siesta:      1.13710  29.81363  13.46086  3      135
siesta:     10.57967  29.81363  13.46086  3      136
siesta:      5.85847   5.42098  13.46086  3      137
siesta:     15.30104   5.42098  13.46086  3      138
siesta:      5.85847  13.55208  13.46086  3      139
siesta:     15.30104  13.55208  13.46086  3      140
siesta:      5.85839  21.68285  13.46086  3      141
siesta:     15.30096  21.68285  13.46086  3      142
siesta:      5.85842  29.81366  13.46086  3      143
siesta:     15.30099  29.81366  13.46086  3      144
siesta:     12.53331   1.62748  10.50565  4      145

siesta: System type = bulk      

initatomlists: Number of atoms, orbitals, and projectors:    145  1917  2313

siesta: ******************** Simulation parameters ****************************
siesta:
siesta: The following are some of the parameters of the simulation.
siesta: A complete list of the parameters used, including default values,
siesta: can be found in file out.fdf
siesta:
redata: Non-Collinear-spin run           =     F
redata: SpinPolarized (Up/Down) run      =     T
redata: Number of spin components        =     2
redata: Long output                      =     F
redata: Number of Atomic Species         =        4
redata: Charge density info will appear in .RHO file
redata: Write Mulliken Pop.              =     NO
redata: Mesh Cutoff                      =   300.0000  Ry
redata: Net charge of the system         =     0.0000 |e|
redata: Max. number of SCF Iter          =      300
redata: Performing Pulay mixing using    =     8 iterations
redata: Mix DM in first SCF step ?       =     F
redata: Write Pulay info on disk?        =     F
redata: Discard 1st Pulay DM after  kick =     F
redata: New DM Mixing Weight             =     0.0500
redata: New DM Occupancy tolerance       = 0.000000000001
redata: No kicks to SCF
redata: DM Mixing Weight for Kicks       =     0.5000
redata: DM Tolerance for SCF             =     0.000100
redata: Require Energy convergence for SCF =     F
redata: DM Energy tolerance for SCF      =     0.000100 eV
redata: Require Harris convergence for SCF =     F
redata: DM Harris energy tolerance for SCF =     0.000100 eV
redata: Antiferro initial spin density   =     F
redata: Using Saved Data (generic)   =     T
redata: Use continuation files for DM    =     T
redata: Neglect nonoverlap interactions  =     F
redata: Method of Calculation            =     Diagonalization
redata: Divide and Conquer               =     T
redata: Electronic Temperature           =     0.0019  Ry
redata: Fix the spin of the system       =     F
redata: Dynamics option                  =     CG coord. optimization
redata: Variable cell                    =     T
redata: Use continuation files for CG    =     T
redata: Max atomic displ per move        =     0.2000  Bohr
redata: Maximum number of CG moves       =     1000
redata: Force tolerance                  =     0.0004  Ry/Bohr
redata: Stress tolerance                 =     1.0000  GPa
redata: ***********************************************************************
Total number of electrons:   698.000000
Total ionic charge:   698.000000

* ProcessorY, Blocksize:    2  24

k-point displ. along   2 input, could be:     0.00    0.50
 Kpoints in:            4 . Kpoints trimmed:            4

siesta: k-grid: Number of k-points =     4
siesta: k-grid: Cutoff (effective) =    12.500 Ang
siesta: k-grid: Supercell and displacements
siesta: k-grid:    3   0   0      0.000
siesta: k-grid:    0   2   0      0.000
siesta: k-grid:    0   0   1      0.000
Naive supercell factors:     3    2    2

superc: Internal auxiliary supercell:     3 x     2 x     2  =      12
superc: Number of atoms, orbitals, and projectors:   1740  23004  27756

* Maximum dynamic memory allocated =     4 MB

siesta:                 ==============================
                            Begin CG move =      0
                        ==============================

superc: Internal auxiliary supercell:     3 x     2 x     2  =      12
superc: Number of atoms, orbitals, and projectors:   1740  23004  27756

outcell: Unit cell vectors (Ang):
        9.993580    0.000000    0.000000
       -0.000006   17.210680    0.000000
        0.000000    0.000000   25.000000

outcell: Cell vector modules (Ang)   :    9.993580   17.210680   25.000000
outcell: Cell angles (23,13,12) (deg):     90.0000     90.0000     90.0000
outcell: Cell volume (Ang**3)        :   4299.9077
New_DM. Step:     1
Initializing Density Matrix...

InitMesh: MESH =   108 x   180 x   270 =     5248800
InitMesh: Mesh cutoff (required, used) =   300.000   302.309 Ry

* Maximum dynamic memory allocated =  1440 MB

stepf: Fermi-Dirac step function

siesta: Program's energy decomposition (eV):
siesta: Ebs     =     -9151.749712
siesta: Eions   =     47015.810783
siesta: Ena     =     10596.301508
siesta: Ekin    =     14642.780825
siesta: Enl     =       764.801158
siesta: DEna    =        -0.000012
siesta: DUscf   =         0.000000
siesta: DUext   =         0.000000
siesta: Exc     =    -11200.151003
siesta: eta*DQ  =         0.000000
siesta: Emadel  =         0.000000
siesta: Emeta   =         0.000000
siesta: Emolmec =         0.000000
siesta: Ekinion =         0.000000
siesta: Eharris =    -31757.864824
siesta: Etot    =    -32212.078307
siesta: FreeEng =    -32212.078307

siesta: iscf   Eharris(eV)      E_KS(eV)   FreeEng(eV)   dDmax  Ef(eV)
siesta:    1   -31757.8648   -32212.0783   -32212.0783  0.9138 -5.6159
timer: Routine,Calls,Time,% = IterSCF        1    1307.739  99.18
elaps: Routine,Calls,Wall,% = IterSCF        1     328.009  99.30
siesta:    2   -36606.0011   -31731.5574   -31731.6716  2.3630 -8.7202
siesta:    3   -32027.3987   -32025.8586   -32025.9819  0.6395 -4.3772
siesta:    4   -31874.2009   -31935.9630   -31936.1334  0.4946 -4.9472
siesta:    5   -31919.1566   -31805.5710   -31805.6623  0.3331 -4.8657
siesta:    6   -31912.7168   -31772.8139   -31772.8935  0.2362 -4.9597
siesta:    7   -31910.5214   -31766.4536   -31766.5324  0.2013 -4.9587
siesta:    8   -31908.4141   -31775.7607   -31775.8397  0.1788 -4.9545
siesta:    9   -31908.2327   -31785.6510   -31785.7164  0.1617 -4.9554
siesta:   10   -31908.5541   -31801.7570   -31801.8115  0.1321 -4.9395
siesta:   11   -31909.1330   -31842.2440   -31842.2822  0.1041 -4.9312
siesta:   12   -31909.5187   -31854.1165   -31854.1339  0.0822 -4.9717
siesta:   13   -31910.7280   -31875.7391   -31875.7616  0.0533 -5.0776
siesta:   14   -31910.4614   -31885.2697   -31885.3039  0.0450 -5.0637
siesta:   15   -31910.3138   -31894.6897   -31894.7249  0.0409 -5.0375
siesta:   16   -31910.2490   -31896.3816   -31896.4048  0.0471 -5.0097
siesta:   17   -31910.2398   -31898.0705   -31898.0968  0.0348 -4.9547
siesta:   18   -31910.2883   -31903.2441   -31903.2612  0.0190 -4.9262
siesta:   19   -31910.2663   -31903.8437   -31903.8654  0.0272 -4.9415
siesta:   20   -31910.2700   -31906.5733   -31906.5942  0.0321 -4.9461
siesta:   21   -31910.2878   -31909.3116   -31909.3307  0.0244 -4.9455
siesta:   22   -31910.3001   -31909.5137   -31909.5299  0.0163 -4.9361
siesta:   23   -31910.3346   -31910.8058   -31910.8212  0.0133 -4.9108
siesta:   24   -31910.3546   -31911.9989   -31912.0137  0.0128 -4.8887
siesta:   25   -31910.3566   -31911.2462   -31911.2611  0.0083 -4.8746
siesta:   26   -31910.3628   -31910.8271   -31910.8420  0.0072 -4.8627
siesta:   27   -31910.3650   -31910.5726   -31910.5876  0.0070 -4.8631
siesta:   28   -31910.3675   -31910.4245   -31910.4396  0.0055 -4.8620
siesta:   29   -31910.3755   -31910.1063   -31910.1215  0.0038 -4.8599
siesta:   30   -31910.3821   -31909.7029   -31909.7185  0.0027 -4.8624
siesta:   31   -31910.3827   -31909.7889   -31909.8049  0.0026 -4.8639
siesta:   32   -31910.3870   -31910.4625   -31910.4786  0.0023 -4.8638
siesta:   33   -31910.3872   -31910.3718   -31910.3882  0.0025 -4.8649
siesta:   34   -31910.3877   -31910.3564   -31910.3728  0.0019 -4.8616
siesta:   35   -31910.3872   -31910.1947   -31910.2111  0.0018 -4.8621
siesta:   36   -31910.3872   -31910.1348   -31910.1511  0.0019 -4.8612
siesta:   37   -31910.3879   -31910.0250   -31910.0413  0.0020 -4.8571
siesta:   38   -31910.3892   -31910.1945   -31910.2107  0.0013 -4.8531
siesta:   39   -31910.3900   -31910.3300   -31910.3462  0.0011 -4.8539
siesta:   40   -31910.3906   -31910.4469   -31910.4631  0.0009 -4.8569
siesta:   41   -31910.3910   -31910.5585   -31910.5745  0.0011 -4.8601
siesta:   42   -31910.3912   -31910.5685   -31910.5845  0.0010 -4.8614
siesta:   43   -31910.3914   -31910.5278   -31910.5437  0.0012 -4.8619
siesta:   44   -31910.3916   -31910.4819   -31910.4978  0.0008 -4.8619
siesta:   45   -31910.3917   -31910.4448   -31910.4605  0.0007 -4.8612
siesta:   46   -31910.3918   -31910.4010   -31910.4167  0.0006 -4.8604
siesta:   47   -31910.3919   -31910.3608   -31910.3764  0.0006 -4.8606
siesta:   48   -31910.3919   -31910.3536   -31910.3692  0.0005 -4.8605
siesta:   49   -31910.3919   -31910.3522   -31910.3678  0.0005 -4.8608
siesta:   50   -31910.3919   -31910.3663   -31910.3818  0.0003 -4.8612
siesta:   51   -31910.3920   -31910.3800   -31910.3955  0.0002 -4.8614
siesta:   52   -31910.3920   -31910.3831   -31910.3986  0.0002 -4.8612
siesta:   53   -31910.3920   -31910.3925   -31910.4080  0.0001 -4.8612

siesta: E_KS(eV) =           -31910.3968

siesta: E_KS - E_eggbox =    -31910.3968

siesta: Atomic forces (eV/Ang):
----------------------------------------
   Tot    0.129606    0.004964   -0.004784
----------------------------------------
   Max   15.753487
   Res    1.010014    sqrt( Sum f_i^2 / 3N )
----------------------------------------
   Max   15.753487    constrained

Stress-tensor-Voigt (kbar):       -1.76       -2.29      -16.27        0.27        0.48       -0.55
(Free)E + p*V (eV/cell)   -31892.2412
Target enthalpy (eV/cell)   -31910.4123

siesta: Stress tensor (static) (eV/Ang**3):
        -0.001097    0.000165   -0.000341
         0.000165   -0.001429    0.000300
        -0.000341    0.000300   -0.010153

siesta: Pressure (static):          6.77073509  kBar

siesta: Stress tensor (total) (eV/Ang**3):
        -0.001097    0.000165   -0.000341
         0.000165   -0.001429    0.000300
        -0.000341    0.000300   -0.010153

siesta: Pressure (total):          6.77073509  kBar

cgvc: No target stress found, assuming hydrostatic MD.TargetPressure.

cgvc: Target stress (kBar)
cgvc:        -0.000       0.000       0.000
cgvc:         0.000      -0.000       0.000
cgvc:         0.000       0.000      -0.000

cgvc: WARNING: CG file not found

* Maximum dynamic memory allocated =  1559 MB

siesta:                 ==============================
                            Begin CG move =      1
                        ==============================
k-point displ. along   2 input, could be:     0.00    0.50
 Kpoints in:            4 . Kpoints trimmed:            4

siesta: k-grid: Number of k-points =     4
siesta: k-grid: Cutoff (effective) =    12.500 Ang
siesta: k-grid: Supercell and displacements
siesta: k-grid:    3   0   0      0.000
siesta: k-grid:    0   2   0      0.000
siesta: k-grid:    0   0   1      0.000
Naive supercell factors:     3    2    2

superc: Internal auxiliary supercell:     3 x     2 x     2  =      12
superc: Number of atoms, orbitals, and projectors:   1740  23004  27756

outcell: Unit cell vectors (Ang):
       10.003025   -0.001425    0.000000
       -0.002460   17.231868    0.000000
        0.000000    0.000000   25.000000

outcell: Cell vector modules (Ang)   :   10.003025   17.231868   25.000000
outcell: Cell angles (23,13,12) (deg):     90.0000     90.0000     90.0163
outcell: Cell volume (Ang**3)        :   4309.2702
New_DM. Step:     2
Re-using DM from previous geometry...
Re-using DM without extrapolation (not allowed)
Density Matrix sparsity pattern changed.

InitMesh: MESH =   108 x   180 x   270 =     5248800
InitMesh: Mesh cutoff (required, used) =   300.000   301.566 Ry

siesta: iscf   Eharris(eV)      E_KS(eV)   FreeEng(eV)   dDmax  Ef(eV)
siesta:    1   -31912.1238   -31909.7414   -31909.7569  0.0901 -4.8751
siesta:    2   -31913.2905   -31911.8898   -31911.9040  0.2008 -4.9248
siesta:    3   -31912.0764   -31910.4189   -31910.4609  0.0574 -4.8758
siesta:    4   -31912.1100   -31911.2548   -31911.2702  0.0240 -4.8853
siesta:    5   -31912.0901   -31911.7416   -31911.7578  0.0093 -4.8923
siesta:    6   -31912.0752   -31911.8862   -31911.9018  0.0043 -4.8919
siesta:    7   -31912.0719   -31911.9317   -31911.9474  0.0024 -4.8951
siesta:    8   -31912.0704   -31911.9789   -31911.9947  0.0018 -4.8985
siesta:    9   -31912.0701   -31912.0227   -31912.0387  0.0019 -4.8983
siesta:   10   -31912.0701   -31912.0458   -31912.0618  0.0013 -4.8961
siesta:   11   -31912.0701   -31912.0550   -31912.0710  0.0010 -4.8958
siesta:   12   -31912.0700   -31912.0650   -31912.0809  0.0007 -4.8964
siesta:   13   -31912.0700   -31912.0687   -31912.0847  0.0005 -4.8966
siesta:   14   -31912.0700   -31912.0715   -31912.0875  0.0004 -4.8967
siesta:   15   -31912.0700   -31912.0722   -31912.0882  0.0004 -4.8967
siesta:   16   -31912.0700   -31912.0725   -31912.0885  0.0004 -4.8968
siesta:   17   -31912.0700   -31912.0715   -31912.0875  0.0003 -4.8966
siesta:   18   -31912.0700   -31912.0710   -31912.0869  0.0002 -4.8966
siesta:   19   -31912.0700   -31912.0696   -31912.0855  0.0002 -4.8965
siesta:   20   -31912.0700   -31912.0692   -31912.0851  0.0001 -4.8966
siesta:   21   -31912.0700   -31912.0695   -31912.0854  0.0001 -4.8966

siesta: E_KS(eV) =           -31912.0697

siesta: Atomic forces (eV/Ang):
----------------------------------------
   Tot    0.181332    0.001102   -0.067210
----------------------------------------
   Max    8.793116
   Res    0.554368    sqrt( Sum f_i^2 / 3N )
----------------------------------------
   Max    8.793116    constrained

Stress-tensor-Voigt (kbar):        0.73        0.32      -12.65       -0.09        0.29       -0.27
(Free)E + p*V (eV/cell)   -31901.6846
Target enthalpy (eV/cell)   -31912.0856

siesta: Stress tensor (static) (eV/Ang**3):
         0.000456   -0.000057   -0.000169
        -0.000057    0.000202    0.000179
        -0.000168    0.000179   -0.007898

siesta: Pressure (static):          3.86711937  kBar

siesta: Stress tensor (total) (eV/Ang**3):
         0.000456   -0.000057   -0.000169
        -0.000057    0.000202    0.000179
        -0.000168    0.000179   -0.007898

siesta: Pressure (total):          3.86711937  kBar

* Maximum dynamic memory allocated =  1588 MB

siesta:                 ==============================
                            Begin CG move =      2
                        ==============================
k-point displ. along   2 input, could be:     0.00    0.50
 Kpoints in:            4 . Kpoints trimmed:            4

siesta: k-grid: Number of k-points =     4
siesta: k-grid: Cutoff (effective) =    12.500 Ang
siesta: k-grid: Supercell and displacements
siesta: k-grid:    3   0   0      0.000
siesta: k-grid:    0   2   0      0.000
siesta: k-grid:    0   0   1      0.000
Naive supercell factors:     3    2    2

superc: Internal auxiliary supercell:     3 x     2 x     2  =      12
superc: Number of atoms, orbitals, and projectors:   1740  23004  27756

outcell: Unit cell vectors (Ang):
       10.015690   -0.003336    0.000000
       -0.005751   17.260277    0.000000
        0.000000    0.000000   25.000000

outcell: Cell vector modules (Ang)   :   10.015690   17.260278   25.000000
outcell: Cell angles (23,13,12) (deg):     90.0000     90.0000     90.0382
outcell: Cell volume (Ang**3)        :   4321.8390
New_DM. Step:     3
Re-using DM from previous geometry...
Re-using DM without extrapolation (not allowed)
Density Matrix sparsity pattern changed.

InitMesh: MESH =   108 x   180 x   270 =     5248800
InitMesh: Mesh cutoff (required, used) =   300.000   300.574 Ry

siesta: iscf   Eharris(eV)      E_KS(eV)   FreeEng(eV)   dDmax  Ef(eV)
siesta:    1   -31913.1432   -31909.9931   -31910.0090  0.0771 -4.9422
siesta:    2   -31916.7003   -31912.7859   -31912.7980  0.4754 -5.1611
siesta:    3   -31913.0925   -31910.5801   -31910.6164  0.0606 -4.9165
siesta:    4   -31913.0881   -31911.4058   -31911.4202  0.0388 -4.9175
siesta:    5   -31913.0813   -31912.2271   -31912.2496  0.0208 -4.9343
siesta:    6   -31913.0830   -31912.7101   -31912.7340  0.0098 -4.9353
siesta:    7   -31913.0818   -31912.8806   -31912.9043  0.0049 -4.9349
siesta:    8   -31913.0784   -31912.9373   -31912.9551  0.0038 -4.9352
siesta:    9   -31913.0787   -31912.9937   -31913.0121  0.0032 -4.9335
siesta:   10   -31913.0775   -31913.0303   -31913.0479  0.0029 -4.9314
siesta:   11   -31913.0768   -31913.0536   -31913.0721  0.0015 -4.9310
siesta:   12   -31913.0769   -31913.0667   -31913.0857  0.0007 -4.9313
siesta:   13   -31913.0768   -31913.0753   -31913.0942  0.0009 -4.9314
siesta:   14   -31913.0767   -31913.0782   -31913.0971  0.0006 -4.9313
siesta:   15   -31913.0767   -31913.0766   -31913.0956  0.0003 -4.9312
siesta:   16   -31913.0768   -31913.0753   -31913.0944  0.0004 -4.9312
siesta:   17   -31913.0768   -31913.0764   -31913.0954  0.0002 -4.9313
siesta:   18   -31913.0768   -31913.0790   -31913.0979  0.0002 -4.9315
siesta:   19   -31913.0768   -31913.0798   -31913.0987  0.0001 -4.9315
siesta:   20   -31913.0769   -31913.0807   -31913.0996  0.0001 -4.9313
siesta:   21   -31913.0769   -31913.0808   -31913.0997  0.0001 -4.9312

siesta: E_KS(eV) =           -31913.0801

siesta: Atomic forces (eV/Ang):
----------------------------------------
   Tot    0.093406    0.026071   -0.108207
----------------------------------------
   Max    3.365871
   Res    0.250231    sqrt( Sum f_i^2 / 3N )
----------------------------------------
   Max    3.365871    constrained

Stress-tensor-Voigt (kbar):        4.04        3.73       -9.58       -0.46        0.13       -0.08
(Free)E + p*V (eV/cell)   -31911.4747
Target enthalpy (eV/cell)   -31913.0990

siesta: Stress tensor (static) (eV/Ang**3):
         0.002523   -0.000290   -0.000048
        -0.000290    0.002326    0.000082
        -0.000048    0.000082   -0.005977

siesta: Pressure (static):          0.60216610  kBar

siesta: Stress tensor (total) (eV/Ang**3):
         0.002523   -0.000290   -0.000048
        -0.000290    0.002326    0.000082
        -0.000048    0.000082   -0.005977

siesta: Pressure (total):          0.60216610  kBar

* Maximum dynamic memory allocated =  1591 MB

siesta:                 ==============================
                            Begin CG move =      3
                        ==============================
k-point displ. along   2 input, could be:     0.00    0.50
 Kpoints in:            4 . Kpoints trimmed:            4

siesta: k-grid: Number of k-points =     4
siesta: k-grid: Cutoff (effective) =    12.500 Ang
siesta: k-grid: Supercell and displacements
siesta: k-grid:    3   0   0      0.000
siesta: k-grid:    0   2   0      0.000
siesta: k-grid:    0   0   1      0.000
Naive supercell factors:     3    2    2

superc: Internal auxiliary supercell:     3 x     2 x     2  =      12
superc: Number of atoms, orbitals, and projectors:   1740  23004  27756

outcell: Unit cell vectors (Ang):
       10.028354   -0.005247    0.000000
       -0.009042   17.288686    0.000000
        0.000000    0.000000   25.000000

outcell: Cell vector modules (Ang)   :   10.028356   17.288688   25.000000
outcell: Cell angles (23,13,12) (deg):     90.0000     90.0000     90.0599
outcell: Cell volume (Ang**3)        :   4334.4255
New_DM. Step:     4
Re-using DM from previous geometry...
Re-using DM without extrapolation (not allowed)
Density Matrix sparsity pattern changed.

InitMesh: MESH =   108 x   192 x   270 =     5598720
InitMesh: Mesh cutoff (required, used) =   300.000   320.546 Ry

siesta: iscf   Eharris(eV)      E_KS(eV)   FreeEng(eV)   dDmax  Ef(eV)
siesta:    1   -31913.3344   -31910.2397   -31910.2585  0.0759 -5.0093
siesta:    2   -31919.3196   -31912.7462   -31912.7599  0.5325 -5.2815
siesta:    3   -31913.2667   -31910.6725   -31910.7403  0.0618 -4.9692
siesta:    4   -31913.2511   -31911.1777   -31911.1931  0.0465 -4.9473
siesta:    5   -31913.2450   -31912.0141   -31912.0365  0.0244 -4.9446
siesta:    6   -31913.2468   -31912.6400   -31912.6706  0.0116 -4.9491
siesta:    7   -31913.2453   -31912.9676   -31912.9902  0.0045 -4.9569
siesta:    8   -31913.2434   -31913.0910   -31913.1137  0.0026 -4.9605
siesta:    9   -31913.2447   -31913.1395   -31913.1621  0.0021 -4.9588
siesta:   10   -31913.2442   -31913.1558   -31913.1771  0.0023 -4.9567
siesta:   11   -31913.2428   -31913.2196   -31913.2411  0.0014 -4.9541
siesta:   12   -31913.2426   -31913.2246   -31913.2470  0.0010 -4.9543
siesta:   13   -31913.2420   -31913.2383   -31913.2609  0.0006 -4.9536
siesta:   14   -31913.2420   -31913.2456   -31913.2687  0.0003 -4.9534
siesta:   15   -31913.2420   -31913.2503   -31913.2734  0.0005 -4.9532
siesta:   16   -31913.2421   -31913.2492   -31913.2724  0.0005 -4.9534
siesta:   17   -31913.2421   -31913.2505   -31913.2735  0.0002 -4.9536
siesta:   18   -31913.2421   -31913.2468   -31913.2698  0.0002 -4.9537
siesta:   19   -31913.2421   -31913.2443   -31913.2673  0.0002 -4.9537
siesta:   20   -31913.2421   -31913.2411   -31913.2641  0.0002 -4.9535
siesta:   21   -31913.2421   -31913.2407   -31913.2637  0.0001 -4.9535
siesta:   22   -31913.2421   -31913.2409   -31913.2639  0.0001 -4.9535
siesta:   23   -31913.2421   -31913.2408   -31913.2638  0.0001 -4.9535

siesta: E_KS(eV) =           -31913.2413

siesta: Atomic forces (eV/Ang):
----------------------------------------
   Tot   -0.019191    0.005576   -0.041463
----------------------------------------
   Max    1.540014
   Res    0.233306    sqrt( Sum f_i^2 / 3N )
----------------------------------------
   Max    1.540014    constrained

Stress-tensor-Voigt (kbar):        7.05        7.91       -7.66       -0.73        0.05        0.06
(Free)E + p*V (eV/cell)   -31919.8538
Target enthalpy (eV/cell)   -31913.2643

siesta: Stress tensor (static) (eV/Ang**3):
         0.004403   -0.000453    0.000039
        -0.000453    0.004938    0.000029
         0.000039    0.000029   -0.004781

siesta: Pressure (static):         -2.43577540  kBar

siesta: Stress tensor (total) (eV/Ang**3):
         0.004403   -0.000453    0.000039
        -0.000453    0.004938    0.000029
         0.000039    0.000029   -0.004781

siesta: Pressure (total):         -2.43577540  kBar

* Maximum dynamic memory allocated =  1639 MB

siesta:                 ==============================
                            Begin CG move =      4
                        ==============================
k-point displ. along   2 input, could be:     0.00    0.50
 Kpoints in:            4 . Kpoints trimmed:            4

siesta: k-grid: Number of k-points =     4
siesta: k-grid: Cutoff (effective) =    12.500 Ang
siesta: k-grid: Supercell and displacements
siesta: k-grid:    3   0   0      0.000
siesta: k-grid:    0   2   0      0.000
siesta: k-grid:    0   0   1      0.000
Naive supercell factors:     3    2    2

superc: Internal auxiliary supercell:     3 x     2 x     2  =      12
superc: Number of atoms, orbitals, and projectors:   1740  23004  27756

outcell: Unit cell vectors (Ang):
       10.025883   -0.004874    0.000000
       -0.008400   17.283142    0.000000
        0.000000    0.000000   25.000000

outcell: Cell vector modules (Ang)   :   10.025884   17.283144   25.000000
outcell: Cell angles (23,13,12) (deg):     90.0000     90.0000     90.0557
outcell: Cell volume (Ang**3)        :   4331.9681
New_DM. Step:     5
Re-using DM from previous geometry...
Re-using DM without extrapolation (not allowed)
Density Matrix sparsity pattern changed.

InitMesh: MESH =   108 x   192 x   270 =     5598720
InitMesh: Mesh cutoff (required, used) =   300.000   320.704 Ry

siesta: iscf   Eharris(eV)      E_KS(eV)   FreeEng(eV)   dDmax  Ef(eV)
siesta:    1   -31913.2569   -31913.8181   -31913.8411  0.0152 -4.9400
siesta:    2   -31913.5311   -31913.2196   -31913.2463  0.1213 -5.0803
siesta:    3   -31913.2591   -31913.7202   -31913.7337  0.0101 -4.9535
siesta:    4   -31913.2582   -31913.6967   -31913.7180  0.0097 -4.9513
siesta:    5   -31913.2597   -31913.3667   -31913.3885  0.0018 -4.9520
siesta:    6   -31913.2584   -31913.2858   -31913.3067  0.0007 -4.9494
siesta:    7   -31913.2580   -31913.2680   -31913.2895  0.0004 -4.9495
siesta:    8   -31913.2577   -31913.2681   -31913.2899  0.0004 -4.9495
siesta:    9   -31913.2577   -31913.2617   -31913.2838  0.0003 -4.9497
siesta:   10   -31913.2577   -31913.2585   -31913.2806  0.0002 -4.9496
siesta:   11   -31913.2577   -31913.2580   -31913.2801  0.0002 -4.9495
siesta:   12   -31913.2577   -31913.2574   -31913.2795  0.0002 -4.9495
siesta:   13   -31913.2577   -31913.2570   -31913.2791  0.0002 -4.9496
siesta:   14   -31913.2577   -31913.2573   -31913.2794  0.0002 -4.9496
siesta:   15   -31913.2577   -31913.2584   -31913.2805  0.0001 -4.9495
siesta:   16   -31913.2577   -31913.2585   -31913.2806  0.0001 -4.9495
siesta:   17   -31913.2577   -31913.2584   -31913.2806  0.0001 -4.9495
siesta:   18   -31913.2577   -31913.2579   -31913.2801  0.0001 -4.9495

siesta: E_KS(eV) =           -31913.2577

siesta: Atomic forces (eV/Ang):
----------------------------------------
   Tot   -0.003277    0.008574   -0.036383
----------------------------------------
   Max    1.406405
   Res    0.220656    sqrt( Sum f_i^2 / 3N )
----------------------------------------
   Max    1.406405    constrained

Stress-tensor-Voigt (kbar):        6.46        7.26       -7.98       -0.68        0.05        0.04
(Free)E + p*V (eV/cell)   -31918.4574
Target enthalpy (eV/cell)   -31913.2799

siesta: Stress tensor (static) (eV/Ang**3):
         0.004030   -0.000426    0.000023
        -0.000426    0.004534    0.000034
         0.000023    0.000034   -0.004978

siesta: Pressure (static):         -1.91494118  kBar

siesta: Stress tensor (total) (eV/Ang**3):
         0.004030   -0.000426    0.000023
        -0.000426    0.004534    0.000034
         0.000023    0.000034   -0.004978

siesta: Pressure (total):         -1.91494118  kBar

cgvc: Finished line minimization    1.  Mean atomic displacement =    0.0324

* Maximum dynamic memory allocated =  1660 MB

siesta:                 ==============================
                            Begin CG move =      5
                        ==============================
k-point displ. along   2 input, could be:     0.00    0.50
 Kpoints in:            4 . Kpoints trimmed:            4

siesta: k-grid: Number of k-points =     4
siesta: k-grid: Cutoff (effective) =    12.500 Ang
siesta: k-grid: Supercell and displacements
siesta: k-grid:    3   0   0      0.000
siesta: k-grid:    0   2   0      0.000
siesta: k-grid:    0   0   1      0.000
Naive supercell factors:     3    2    2

superc: Internal auxiliary supercell:     3 x     2 x     2  =      12
superc: Number of atoms, orbitals, and projectors:   1740  23004  27756

outcell: Unit cell vectors (Ang):
        9.836885    0.014843    0.000000
        0.025557   16.918842    0.000000
        0.000000    0.000000   25.000000

outcell: Cell vector modules (Ang)   :    9.836897   16.918862   25.000000
outcell: Cell angles (23,13,12) (deg):     90.0000     90.0000     89.8270
outcell: Cell volume (Ang**3)        :   4160.7084
New_DM. Step:     6
Re-using DM from previous geometry...
Re-using DM without extrapolation (not allowed)
Density Matrix sparsity pattern changed.

InitMesh: MESH =   108 x   180 x   270 =     5248800
InitMesh: Mesh cutoff (required, used) =   300.000   312.830 Ry

siesta: iscf   Eharris(eV)      E_KS(eV)   FreeEng(eV)   dDmax  Ef(eV)
siesta:    1   -31923.9555   -31941.5308   -31941.5530  0.2070 -5.5553
siesta:    2   -41659.7116   -31615.0755   -31615.1341  3.5520-12.8298
siesta:    3   -31912.9696   -31938.9459   -31939.0234  0.0736 -5.1710
siesta:    4   -31912.3117   -31937.6422   -31937.6556  0.0669 -5.0629
siesta:    5   -31912.5074   -31929.8811   -31929.8968  0.2603 -4.7069
siesta:    6   -31912.1954   -31927.2943   -31927.3194  0.0505 -4.7034
siesta:    7   -31912.2498   -31920.2175   -31920.2346  0.0480 -4.6504
siesta:    8   -31912.1632   -31913.1532   -31913.1664  0.0392 -4.7096
siesta:    9   -31911.8062   -31912.4490   -31912.4607  0.0492 -4.8348
siesta:   10   -31911.6919   -31912.3308   -31912.3486  0.0312 -4.9087
siesta:   11   -31911.6282   -31912.0268   -31912.0449  0.0199 -4.9507
siesta:   12   -31911.6247   -31911.9889   -31912.0168  0.0196 -4.9542
siesta:   13   -31911.6199   -31911.7523   -31911.7801  0.0153 -4.9473
siesta:   14   -31911.6168   -31911.4150   -31911.4428  0.0087 -4.9317
siesta:   15   -31911.6160   -31911.4134   -31911.4411  0.0077 -4.9323
siesta:   16   -31911.6139   -31911.5551   -31911.5835  0.0038 -4.9374
siesta:   17   -31911.6138   -31911.5850   -31911.6134  0.0036 -4.9370
siesta:   18   -31911.6137   -31911.6679   -31911.6962  0.0028 -4.9385
siesta:   19   -31911.6130   -31911.6500   -31911.6778  0.0021 -4.9391
siesta:   20   -31911.6131   -31911.6180   -31911.6462  0.0013 -4.9392
siesta:   21   -31911.6132   -31911.5862   -31911.6144  0.0009 -4.9397
siesta:   22   -31911.6131   -31911.5786   -31911.6066  0.0008 -4.9387
siesta:   23   -31911.6132   -31911.5778   -31911.6058  0.0007 -4.9385
siesta:   24   -31911.6132   -31911.5839   -31911.6119  0.0006 -4.9383
siesta:   25   -31911.6132   -31911.5873   -31911.6153  0.0006 -4.9383
siesta:   26   -31911.6132   -31911.6037   -31911.6317  0.0006 -4.9385
siesta:   27   -31911.6132   -31911.6127   -31911.6407  0.0005 -4.9384
siesta:   28   -31911.6132   -31911.6176   -31911.6456  0.0005 -4.9384
siesta:   29   -31911.6132   -31911.6230   -31911.6509  0.0004 -4.9385
siesta:   30   -31911.6132   -31911.6230   -31911.6509  0.0004 -4.9385
siesta:   31   -31911.6132   -31911.6215   -31911.6495  0.0004 -4.9385
siesta:   32   -31911.6132   -31911.6183   -31911.6463  0.0004 -4.9385
siesta:   33   -31911.6132   -31911.6171   -31911.6451  0.0003 -4.9385
siesta:   34   -31911.6132   -31911.6156   -31911.6435  0.0003 -4.9385
siesta:   35   -31911.6132   -31911.6157   -31911.6437  0.0003 -4.9385
siesta:   36   -31911.6132   -31911.6155   -31911.6435  0.0003 -4.9385
siesta:   37   -31911.6132   -31911.6157   -31911.6437  0.0003 -4.9385
siesta:   38   -31911.6132   -31911.6160   -31911.6439  0.0003 -4.9385
siesta:   39   -31911.6132   -31911.6158   -31911.6438  0.0003 -4.9385
siesta:   40   -31911.6132   -31911.6154   -31911.6434  0.0003 -4.9385
siesta:   41   -31911.6132   -31911.6151   -31911.6431  0.0003 -4.9384
siesta:   42   -31911.6132   -31911.6157   -31911.6437  0.0003 -4.9385
siesta:   43   -31911.6132   -31911.6158   -31911.6438  0.0003 -4.9385
siesta:   44   -31911.6132   -31911.6166   -31911.6446  0.0003 -4.9385
siesta:   45   -31911.6132   -31911.6156   -31911.6436  0.0003 -4.9385
siesta:   46   -31911.6132   -31911.6155   -31911.6435  0.0003 -4.9384
siesta:   47   -31911.6132   -31911.6150   -31911.6430  0.0003 -4.9384
siesta:   48   -31911.6132   -31911.6141   -31911.6421  0.0003 -4.9383
siesta:   49   -31911.6131   -31911.6130   -31911.6411  0.0003 -4.9383
siesta:   50   -31911.6131   -31911.6102   -31911.6382  0.0003 -4.9383
siesta:   51   -31911.6131   -31911.6086   -31911.6367  0.0003 -4.9384
siesta:   52   -31911.6131   -31911.6087   -31911.6368  0.0003 -4.9384
siesta:   53   -31911.6132   -31911.6048   -31911.6328  0.0003 -4.9384
siesta:   54   -31911.6132   -31911.6055   -31911.6335  0.0003 -4.9384
siesta:   55   -31911.6132   -31911.6027   -31911.6307  0.0003 -4.9384
siesta:   56   -31911.6132   -31911.6014   -31911.6294  0.0004 -4.9385
siesta:   57   -31911.6131   -31911.6044   -31911.6323  0.0002 -4.9384
siesta:   58   -31911.6132   -31911.6033   -31911.6313  0.0003 -4.9384
siesta:   59   -31911.6131   -31911.6061   -31911.6341  0.0002 -4.9384
siesta:   60   -31911.6131   -31911.6037   -31911.6318  0.0003 -4.9383
siesta:   61   -31911.6132   -31911.6048   -31911.6328  0.0003 -4.9384
siesta:   62   -31911.6131   -31911.6077   -31911.6357  0.0003 -4.9384
siesta:   63   -31911.6131   -31911.6067   -31911.6347  0.0003 -4.9384
siesta:   64   -31911.6132   -31911.6067   -31911.6347  0.0003 -4.9384
siesta:   65   -31911.6132   -31911.6115   -31911.6395  0.0003 -4.9385
siesta:   66   -31911.6132   -31911.6140   -31911.6419  0.0003 -4.9385
siesta:   67   -31911.6133   -31911.6152   -31911.6431  0.0003 -4.9385
siesta:   68   -31911.6133   -31911.6159   -31911.6438  0.0003 -4.9385
siesta:   69   -31911.6133   -31911.6145   -31911.6424  0.0003 -4.9385
siesta:   70   -31911.6133   -31911.6167   -31911.6445  0.0003 -4.9385
siesta:   71   -31911.6133   -31911.6167   -31911.6445  0.0003 -4.9385
siesta:   72   -31911.6134   -31911.6165   -31911.6443  0.0003 -4.9384
siesta:   73   -31911.6134   -31911.6171   -31911.6449  0.0002 -4.9384
siesta:   74   -31911.6136   -31911.6213   -31911.6490  0.0002 -4.9385
siesta:   75   -31911.6135   -31911.6178   -31911.6453  0.0002 -4.9385
siesta:   76   -31911.6135   -31911.6184   -31911.6460  0.0002 -4.9385
siesta:   77   -31911.6135   -31911.6190   -31911.6465  0.0002 -4.9385
siesta:   78   -31911.6135   -31911.6182   -31911.6458  0.0002 -4.9385
siesta:   79   -31911.6136   -31911.6159   -31911.6435  0.0001 -4.9385
siesta:   80   -31911.6136   -31911.6147   -31911.6423  0.0001 -4.9385
siesta:   81   -31911.6136   -31911.6144   -31911.6419  0.0001 -4.9385
siesta:   82   -31911.6136   -31911.6128   -31911.6404  0.0001 -4.9386
siesta:   83   -31911.6136   -31911.6123   -31911.6397  0.0001 -4.9386
siesta:   84   -31911.6137   -31911.6103   -31911.6377  0.0001 -4.9386
siesta:   85   -31911.6137   -31911.6102   -31911.6376  0.0001 -4.9386
siesta:   86   -31911.6137   -31911.6103   -31911.6377  0.0001 -4.9386

siesta: E_KS(eV) =           -31911.6104

siesta: Atomic forces (eV/Ang):
----------------------------------------
   Tot   -0.034862   -0.018970   -0.026058
----------------------------------------
   Max    1.406555
   Res    0.317065    sqrt( Sum f_i^2 / 3N )
----------------------------------------
   Max    1.406555    constrained

Stress-tensor-Voigt (kbar):      -47.61      -44.74      -15.75        2.62        0.12       -0.03
(Free)E + p*V (eV/cell)   -31818.0548
Target enthalpy (eV/cell)   -31911.6378

siesta: Stress tensor (static) (eV/Ang**3):
        -0.029717    0.001634   -0.000022
         0.001634   -0.027927    0.000077
        -0.000022    0.000077   -0.009833

siesta: Pressure (static):         36.03669558  kBar

siesta: Stress tensor (total) (eV/Ang**3):
        -0.029717    0.001634   -0.000022
         0.001634   -0.027927    0.000077
        -0.000022    0.000077   -0.009833

siesta: Pressure (total):         36.03669558  kBar

* Maximum dynamic memory allocated =  1668 MB

siesta:                 ==============================
                            Begin CG move =      6
                        ==============================
k-point displ. along   2 input, could be:     0.00    0.50
 Kpoints in:            4 . Kpoints trimmed:            4

siesta: k-grid: Number of k-points =     4
siesta: k-grid: Cutoff (effective) =    12.500 Ang
siesta: k-grid: Supercell and displacements
siesta: k-grid:    3   0   0      0.000
siesta: k-grid:    0   2   0      0.000
siesta: k-grid:    0   0   1      0.000
Naive supercell factors:     3    2    2

superc: Internal auxiliary supercell:     3 x     2 x     2  =      12
superc: Number of atoms, orbitals, and projectors:   1740  23004  27756

outcell: Unit cell vectors (Ang):
        9.984049   -0.000510    0.000000
       -0.000883   17.202506    0.000000
        0.000000    0.000000   25.000000

outcell: Cell vector modules (Ang)   :    9.984049   17.202506   25.000000
outcell: Cell angles (23,13,12) (deg):     90.0000     90.0000     90.0059
outcell: Cell volume (Ang**3)        :   4293.7667
New_DM. Step:     7
Re-using DM from previous geometry...
Re-using DM without extrapolation (not allowed)
Density Matrix sparsity pattern changed.

InitMesh: MESH =   108 x   180 x   270 =     5248800
InitMesh: Mesh cutoff (required, used) =   300.000   302.596 Ry

siesta: iscf   Eharris(eV)      E_KS(eV)   FreeEng(eV)   dDmax  Ef(eV)
siesta:    1   -31917.3643   -31888.0565   -31888.0840  0.3265 -4.7332
siesta:    2   -34233.3468   -31854.2396   -31854.2733  0.8684 -7.2571
siesta:    3   -31914.3109   -31888.3422   -31888.4383  0.0522 -4.7536
siesta:    4   -31913.7642   -31890.3355   -31890.3597  0.0586 -4.7363
siesta:    5   -31913.8289   -31895.6677   -31895.6784  0.0437 -4.8577
siesta:    6   -31914.1635   -31898.5260   -31898.5659  0.0428 -4.9016
siesta:    7   -31914.0179   -31904.0590   -31904.0888  0.0383 -4.9228
siesta:    8   -31915.3247   -31922.4865   -31922.5131  0.0688 -5.1457
siesta:    9   -31918.1345   -31941.9773   -31942.0264  0.0817 -5.2617
siesta:   10   -31917.3653   -31939.4513   -31939.5211  0.0918 -5.2179
siesta:   11   -31915.2468   -31937.7128   -31937.7848  0.0825 -5.1701
siesta:   12   -31914.2384   -31937.0656   -31937.1015  0.0751 -5.0199
siesta:   13   -31913.4568   -31932.1065   -31932.1352  0.0517 -4.9170
siesta:   14   -31913.4693   -31930.7382   -31930.7575  0.0439 -4.9119
siesta:   15   -31913.4675   -31930.9327   -31930.9464  0.0456 -4.9110
siesta:   16   -31913.4933   -31927.9613   -31927.9756  0.0384 -4.8895
siesta:   17   -31913.5884   -31920.8188   -31920.8305  0.0423 -4.8222
siesta:   18   -31913.6115   -31917.0296   -31917.0409  0.0262 -4.8709
siesta:   19   -31913.6019   -31915.3979   -31915.4092  0.0292 -4.8531
siesta:   20   -31913.5770   -31915.1764   -31915.1875  0.0282 -4.8748
siesta:   21   -31913.6015   -31914.2427   -31914.2540  0.0243 -4.8634
siesta:   22   -31913.5533   -31914.2480   -31914.2591  0.0130 -4.9107
siesta:   23   -31913.5158   -31913.1054   -31913.1167  0.0088 -4.9401
siesta:   24   -31913.4759   -31911.7579   -31911.7695  0.0071 -4.9716
siesta:   25   -31913.4379   -31912.2131   -31912.2257  0.0073 -4.9835
siesta:   26   -31913.4269   -31912.8883   -31912.9043  0.0056 -4.9742
siesta:   27   -31913.4276   -31912.9677   -31912.9859  0.0039 -4.9591
siesta:   28   -31913.4135   -31912.9266   -31912.9430  0.0066 -4.9540
siesta:   29   -31913.4177   -31912.5438   -31912.5677  0.0040 -4.9525
siesta:   30   -31913.4160   -31912.4141   -31912.4349  0.0037 -4.9507
siesta:   31   -31913.4183   -31912.7392   -31912.7607  0.0023 -4.9533
siesta:   32   -31913.4136   -31912.9242   -31912.9439  0.0029 -4.9522
siesta:   33   -31913.4142   -31913.4744   -31913.4971  0.0027 -4.9493
siesta:   34   -31913.4114   -31913.7866   -31913.8087  0.0029 -4.9462
siesta:   35   -31913.4149   -31913.6737   -31913.6984  0.0020 -4.9501
siesta:   36   -31913.4122   -31913.4438   -31913.4653  0.0018 -4.9493
siesta:   37   -31913.4132   -31913.3427   -31913.3664  0.0019 -4.9516
siesta:   38   -31913.4128   -31913.3604   -31913.3833  0.0020 -4.9512
siesta:   39   -31913.4127   -31913.3700   -31913.3932  0.0020 -4.9510
siesta:   40   -31913.4128   -31913.3854   -31913.4086  0.0022 -4.9508
siesta:   41   -31913.4128   -31913.3985   -31913.4216  0.0022 -4.9510
siesta:   42   -31913.4128   -31913.3906   -31913.4137  0.0021 -4.9507
siesta:   43   -31913.4128   -31913.3743   -31913.3975  0.0021 -4.9507
siesta:   44   -31913.4128   -31913.3851   -31913.4083  0.0021 -4.9507
siesta:   45   -31913.4128   -31913.3853   -31913.4085  0.0021 -4.9507
siesta:   46   -31913.4126   -31913.4521   -31913.4753  0.0023 -4.9504
siesta:   47   -31913.4123   -31913.5370   -31913.5603  0.0025 -4.9498
siesta:   48   -31913.4123   -31913.4560   -31913.4796  0.0011 -4.9499
siesta:   49   -31913.4117   -31913.4154   -31913.4391  0.0010 -4.9494
siesta:   50   -31913.4118   -31913.4032   -31913.4274  0.0008 -4.9496
siesta:   51   -31913.4119   -31913.3977   -31913.4218  0.0006 -4.9496
siesta:   52   -31913.4118   -31913.4115   -31913.4355  0.0005 -4.9495
siesta:   53   -31913.4119   -31913.4185   -31913.4426  0.0004 -4.9497
siesta:   54   -31913.4119   -31913.4196   -31913.4436  0.0003 -4.9496
siesta:   55   -31913.4119   -31913.4299   -31913.4538  0.0002 -4.9495
siesta:   56   -31913.4119   -31913.4318   -31913.4558  0.0002 -4.9495
siesta:   57   -31913.4119   -31913.4312   -31913.4553  0.0002 -4.9495
siesta:   58   -31913.4119   -31913.4273   -31913.4513  0.0002 -4.9495
siesta:   59   -31913.4119   -31913.4095   -31913.4335  0.0001 -4.9497
siesta:   60   -31913.4119   -31913.4096   -31913.4335  0.0001 -4.9497

siesta: E_KS(eV) =           -31913.4089

siesta: Atomic forces (eV/Ang):
----------------------------------------
   Tot    0.158657   -0.004237    0.027291
----------------------------------------
   Max    1.169740
   Res    0.193267    sqrt( Sum f_i^2 / 3N )
----------------------------------------
   Max    1.169740    constrained

Stress-tensor-Voigt (kbar):       -4.25       -3.85       -9.45       -0.02        0.08        0.10
(Free)E + p*V (eV/cell)   -31897.7557
Target enthalpy (eV/cell)   -31913.4328

siesta: Stress tensor (static) (eV/Ang**3):
        -0.002650   -0.000014    0.000065
        -0.000014   -0.002404    0.000048
         0.000065    0.000048   -0.005899

siesta: Pressure (static):          5.84984600  kBar

siesta: Stress tensor (total) (eV/Ang**3):
        -0.002650   -0.000014    0.000065
        -0.000014   -0.002404    0.000048
         0.000065    0.000048   -0.005899

siesta: Pressure (total):          5.84984600  kBar

cgvc: Finished line minimization    2.  Mean atomic displacement =    0.0072

* Maximum dynamic memory allocated =  1674 MB

siesta:                 ==============================
                            Begin CG move =      7
                        ==============================
k-point displ. along   2 input, could be:     0.00    0.50
 Kpoints in:            4 . Kpoints trimmed:            4

siesta: k-grid: Number of k-points =     4
siesta: k-grid: Cutoff (effective) =    12.500 Ang
siesta: k-grid: Supercell and displacements
siesta: k-grid:    3   0   0      0.000
siesta: k-grid:    0   2   0      0.000
siesta: k-grid:    0   0   1      0.000
Naive supercell factors:     3    2    2

superc: Internal auxiliary supercell:     3 x     2 x     2  =      12
superc: Number of atoms, orbitals, and projectors:   1740  23004  27756

outcell: Unit cell vectors (Ang):
        9.992786    0.002133    0.000000
        0.003667   17.207499    0.000000
        0.000000    0.000000   25.000000

outcell: Cell vector modules (Ang)   :    9.992786   17.207499   25.000000
outcell: Cell angles (23,13,12) (deg):     90.0000     90.0000     89.9756
outcell: Cell volume (Ang**3)        :   4298.7709
New_DM. Step:     8
Re-using DM from previous geometry...
Re-using DM without extrapolation (not allowed)
Density Matrix sparsity pattern changed.

InitMesh: MESH =   108 x   180 x   270 =     5248800
InitMesh: Mesh cutoff (required, used) =   300.000   302.421 Ry

siesta: iscf   Eharris(eV)      E_KS(eV)   FreeEng(eV)   dDmax  Ef(eV)
siesta:    1   -31913.5846   -31912.2674   -31912.2914  0.0202 -5.0046
siesta:    2   -31914.3007   -31913.4900   -31913.5188  0.3235 -4.8329
siesta:    3   -31913.5789   -31912.4803   -31912.5094  0.0132 -4.9752
siesta:    4   -31913.5763   -31912.6002   -31912.6239  0.0118 -4.9728
siesta:    5   -31913.5767   -31913.0790   -31913.1034  0.0058 -4.9651
siesta:    6   -31913.5761   -31913.4638   -31913.4896  0.0025 -4.9764
siesta:    7   -31913.5744   -31913.5270   -31913.5526  0.0014 -4.9763
siesta:    8   -31913.5736   -31913.5513   -31913.5771  0.0007 -4.9762
siesta:    9   -31913.5735   -31913.5604   -31913.5863  0.0008 -4.9759
siesta:   10   -31913.5735   -31913.5630   -31913.5889  0.0008 -4.9756
siesta:   11   -31913.5735   -31913.5647   -31913.5905  0.0009 -4.9755
siesta:   12   -31913.5735   -31913.5673   -31913.5932  0.0005 -4.9754
siesta:   13   -31913.5734   -31913.5702   -31913.5960  0.0003 -4.9751
siesta:   14   -31913.5734   -31913.5715   -31913.5974  0.0002 -4.9748
siesta:   15   -31913.5734   -31913.5745   -31913.6003  0.0002 -4.9749
siesta:   16   -31913.5734   -31913.5755   -31913.6014  0.0002 -4.9750
siesta:   17   -31913.5735   -31913.5749   -31913.6007  0.0002 -4.9751
siesta:   18   -31913.5735   -31913.5740   -31913.5998  0.0002 -4.9751
siesta:   19   -31913.5735   -31913.5727   -31913.5986  0.0002 -4.9751
siesta:   20   -31913.5735   -31913.5720   -31913.5979  0.0002 -4.9751
siesta:   21   -31913.5735   -31913.5721   -31913.5980  0.0002 -4.9751
siesta:   22   -31913.5735   -31913.5733   -31913.5992  0.0001 -4.9751
siesta:   23   -31913.5735   -31913.5736   -31913.5994  0.0001 -4.9751
siesta:   24   -31913.5735   -31913.5741   -31913.6000  0.0001 -4.9751
siesta:   25   -31913.5735   -31913.5745   -31913.6003  0.0001 -4.9751
siesta:   26   -31913.5735   -31913.5742   -31913.6000  0.0001 -4.9752
siesta:   27   -31913.5735   -31913.5733   -31913.5991  0.0001 -4.9752
siesta:   28   -31913.5735   -31913.5732   -31913.5990  0.0001 -4.9752
siesta:   29   -31913.5735   -31913.5732   -31913.5990  0.0001 -4.9751
[...]

InitMesh: MESH =   108 x   180 x   270 =     5248800
InitMesh: Mesh cutoff (required, used) =   300.000   301.283 Ry

siesta: iscf   Eharris(eV)      E_KS(eV)   FreeEng(eV)   dDmax  Ef(eV)
siesta:    1   -31915.3831   -31914.0298   -31914.0563  0.0116 -4.9871
siesta:    2   -31918.8151   -31915.0431   -31915.0537  0.1056 -5.3152
siesta:    3   -31915.3362   -31914.1884   -31914.2381  0.0057 -4.9692
siesta:    4   -31915.3342   -31914.2632   -31914.2905  0.0053 -4.9639
siesta:    5   -31915.3360   -31914.6620   -31914.6904  0.0038 -4.9547
siesta:    6   -31915.3319   -31915.1267   -31915.1540  0.0059 -4.9500
siesta:    7   -31915.3322   -31915.2672   -31915.2999  0.0038 -4.9573
siesta:    8   -31915.3341   -31915.3064   -31915.3372  0.0011 -4.9633
siesta:    9   -31915.3330   -31915.3181   -31915.3459  0.0004 -4.9614
siesta:   10   -31915.3333   -31915.3257   -31915.3544  0.0002 -4.9620
siesta:   11   -31915.3331   -31915.3286   -31915.3570  0.0002 -4.9616
siesta:   12   -31915.3331   -31915.3302   -31915.3588  0.0001 -4.9617
siesta:   13   -31915.3331   -31915.3303   -31915.3589  0.0001 -4.9618
siesta:   14   -31915.3331   -31915.3332   -31915.3617  0.0001 -4.9616
siesta:   15   -31915.3331   -31915.3341   -31915.3627  0.0001 -4.9615
siesta:   16   -31915.3331   -31915.3343   -31915.3629  0.0001 -4.9615
siesta:   17   -31915.3331   -31915.3331   -31915.3617  0.0001 -4.9615
siesta:   18   -31915.3331   -31915.3331   -31915.3616  0.0001 -4.9615
siesta:   19   -31915.3331   -31915.3332   -31915.3617  0.0001 -4.9615
siesta:   20   -31915.3331   -31915.3332   -31915.3618  0.0001 -4.9615
siesta:   21   -31915.3331   -31915.3332   -31915.3617  0.0001 -4.9615
siesta:   22   -31915.3331   -31915.3331   -31915.3617  0.0001 -4.9615
siesta:   23   -31915.3331   -31915.3330   -31915.3616  0.0001 -4.9615
siesta:   24   -31915.3331   -31915.3328   -31915.3614  0.0001 -4.9615
siesta:   25   -31915.3331   -31915.3329   -31915.3615  0.0001 -4.9615

siesta: E_KS(eV) =           -31915.3337

siesta: Atomic forces (eV/Ang):
----------------------------------------
   Tot    0.270653    0.018758   -0.016369
----------------------------------------
   Max    0.633407
   Res    0.057392    sqrt( Sum f_i^2 / 3N )
----------------------------------------
   Max    0.164819    constrained

Stress-tensor-Voigt (kbar):        0.26        2.00       -1.39        0.99        0.11       -0.06
(Free)E + p*V (eV/cell)   -31916.1370
Target enthalpy (eV/cell)   -31915.3623

siesta: Stress tensor (static) (eV/Ang**3):
         0.000160    0.000616   -0.000037
         0.000616    0.001248    0.000068
        -0.000037    0.000068   -0.000867

siesta: Pressure (static):         -0.28890536  kBar

siesta: Stress tensor (total) (eV/Ang**3):
         0.000160    0.000616   -0.000037
         0.000616    0.001248    0.000068
        -0.000037    0.000068   -0.000867

siesta: Pressure (total):         -0.28890536  kBar

* Maximum dynamic memory allocated =  1899 MB

siesta:                 ==============================
                            Begin CG move =     75
                        ==============================
k-point displ. along   2 input, could be:     0.00    0.50
 Kpoints in:            4 . Kpoints trimmed:            4

siesta: k-grid: Number of k-points =     4
siesta: k-grid: Cutoff (effective) =    12.500 Ang
siesta: k-grid: Supercell and displacements
siesta: k-grid:    3   0   0      0.000
siesta: k-grid:    0   2   0      0.000
siesta: k-grid:    0   0   1      0.000
Naive supercell factors:     3    2    2

superc: Internal auxiliary supercell:     3 x     2 x     2  =      12
superc: Number of atoms, orbitals, and projectors:   1740  23004  27756

outcell: Unit cell vectors (Ang):
        9.968965    0.007429    0.000000
        0.012788   17.233267    0.000000
        0.000000    0.000000   25.000000

outcell: Cell vector modules (Ang)   :    9.968967   17.233272   25.000000
outcell: Cell angles (23,13,12) (deg):     90.0000     90.0000     89.9148
outcell: Cell volume (Ang**3)        :   4294.9435
New_DM. Step:    76
Re-using DM from previous geometry...
Re-using DM without extrapolation (not allowed)
Density Matrix sparsity pattern changed.

InitMesh: MESH =   108 x   180 x   270 =     5248800
InitMesh: Mesh cutoff (required, used) =   300.000   301.517 Ry

siesta: iscf   Eharris(eV)      E_KS(eV)   FreeEng(eV)   dDmax  Ef(eV)
siesta:    1   -31915.3329   -31915.5904   -31915.6189  0.0091 -4.9543
siesta:    2   -31915.5624   -31915.3113   -31915.3425  0.0197 -4.9985
siesta:    3   -31915.3379   -31915.5457   -31915.5461  0.0075 -4.9653
siesta:    4   -31915.3351   -31915.5497   -31915.5754  0.0077 -4.9621
siesta:    5   -31915.3364   -31915.4488   -31915.4765  0.0041 -4.9664
siesta:    6   -31915.3354   -31915.3608   -31915.3875  0.0010 -4.9652
siesta:    7   -31915.3353   -31915.3359   -31915.3634  0.0011 -4.9628
siesta:    8   -31915.3346   -31915.3347   -31915.3623  0.0002 -4.9615
siesta:    9   -31915.3345   -31915.3346   -31915.3627  0.0002 -4.9612
siesta:   10   -31915.3344   -31915.3344   -31915.3626  0.0001 -4.9612
siesta:   11   -31915.3344   -31915.3344   -31915.3626  0.0001 -4.9612

siesta: E_KS(eV) =           -31915.3344

siesta: Atomic forces (eV/Ang):
----------------------------------------
   Tot    0.268078    0.008793   -0.016087
----------------------------------------
   Max    0.628530
   Res    0.052972    sqrt( Sum f_i^2 / 3N )
----------------------------------------
   Max    0.155128    constrained

Stress-tensor-Voigt (kbar):        0.15        1.30       -1.46        0.90        0.11       -0.06
(Free)E + p*V (eV/cell)   -31915.3520
Target enthalpy (eV/cell)   -31915.3626

siesta: Stress tensor (static) (eV/Ang**3):
         0.000095    0.000565   -0.000037
         0.000565    0.000811    0.000069
        -0.000037    0.000069   -0.000914

siesta: Pressure (static):          0.00398070  kBar

siesta: Stress tensor (total) (eV/Ang**3):
         0.000095    0.000565   -0.000037
         0.000565    0.000811    0.000069
        -0.000037    0.000069   -0.000914

siesta: Pressure (total):          0.00398070  kBar

cgvc: Finished line minimization   29.  Mean atomic displacement =    0.0082

* Maximum dynamic memory allocated =  1903 MB

siesta:                 ==============================
                            Begin CG move =     76
                        ==============================
k-point displ. along   2 input, could be:     0.00    0.50
 Kpoints in:            4 . Kpoints trimmed:            4

siesta: k-grid: Number of k-points =     4
siesta: k-grid: Cutoff (effective) =    12.500 Ang
siesta: k-grid: Supercell and displacements
siesta: k-grid:    3   0   0      0.000
siesta: k-grid:    0   2   0      0.000
siesta: k-grid:    0   0   1      0.000
Naive supercell factors:     3    2    2

superc: Internal auxiliary supercell:     3 x     2 x     2  =      12
superc: Number of atoms, orbitals, and projectors:   1740  23004  27756

outcell: Unit cell vectors (Ang):
        9.965281   -0.003892    0.000000
       -0.006709   17.223468    0.000000
        0.000000    0.000000   25.000000

outcell: Cell vector modules (Ang)   :    9.965282   17.223469   25.000000
outcell: Cell angles (23,13,12) (deg):     90.0000     90.0000     90.0447
outcell: Cell volume (Ang**3)        :   4290.9167
New_DM. Step:    77
Re-using DM from previous geometry...
Re-using DM without extrapolation (not allowed)
Density Matrix sparsity pattern changed.

InitMesh: MESH =   108 x   180 x   270 =     5248800
InitMesh: Mesh cutoff (required, used) =   300.000   301.860 Ry

siesta: iscf   Eharris(eV)      E_KS(eV)   FreeEng(eV)   dDmax  Ef(eV)
siesta:    1   -31915.3510   -31916.0344   -31916.0627  0.0149 -4.9510
siesta:    2   -31916.3317   -31915.2127   -31915.2475  0.0451 -4.8003
siesta:    3   -31915.3763   -31915.8931   -31915.8933  0.0134 -4.9725
siesta:    4   -31915.3555   -31915.9154   -31915.9321  0.0124 -4.9666
siesta:    5   -31915.3549   -31915.8387   -31915.8631  0.0108 -4.9672
siesta:    6   -31915.3553   -31915.3977   -31915.4221  0.0034 -4.9678
siesta:    7   -31915.3511   -31915.3557   -31915.3806  0.0025 -4.9619
siesta:    8   -31915.3489   -31915.3471   -31915.3739  0.0003 -4.9597
siesta:    9   -31915.3490   -31915.3464   -31915.3748  0.0003 -4.9597
siesta:   10   -31915.3491   -31915.3466   -31915.3749  0.0002 -4.9601
siesta:   11   -31915.3491   -31915.3472   -31915.3754  0.0003 -4.9602
siesta:   12   -31915.3490   -31915.3473   -31915.3755  0.0002 -4.9600
siesta:   13   -31915.3490   -31915.3481   -31915.3764  0.0002 -4.9600
siesta:   14   -31915.3490   -31915.3479   -31915.3762  0.0001 -4.9600
siesta:   15   -31915.3490   -31915.3477   -31915.3759  0.0001 -4.9601
siesta:   16   -31915.3490   -31915.3477   -31915.3759  0.0001 -4.9601
siesta:   17   -31915.3490   -31915.3480   -31915.3763  0.0001 -4.9601
siesta:   18   -31915.3490   -31915.3482   -31915.3765  0.0001 -4.9601
siesta:   19   -31915.3490   -31915.3483   -31915.3766  0.0001 -4.9601
siesta:   20   -31915.3490   -31915.3483   -31915.3766  0.0001 -4.9601
siesta:   21   -31915.3490   -31915.3483   -31915.3766  0.0001 -4.9601
siesta:   22   -31915.3490   -31915.3483   -31915.3766  0.0001 -4.9601
siesta:   23   -31915.3490   -31915.3483   -31915.3766  0.0001 -4.9601
siesta:   24   -31915.3490   -31915.3483   -31915.3766  0.0001 -4.9601
siesta:   25   -31915.3490   -31915.3484   -31915.3766  0.0001 -4.9601
siesta:   26   -31915.3490   -31915.3484   -31915.3767  0.0001 -4.9601
siesta:   27   -31915.3490   -31915.3489   -31915.3771  0.0001 -4.9601
siesta:   28   -31915.3490   -31915.3493   -31915.3776  0.0001 -4.9601
siesta:   29   -31915.3490   -31915.3494   -31915.3777  0.0001 -4.9601
siesta:   30   -31915.3490   -31915.3494   -31915.3777  0.0001 -4.9601

siesta: E_KS(eV) =           -31915.3494

siesta: Atomic forces (eV/Ang):
----------------------------------------
   Tot    0.258152    0.019450    0.006337
----------------------------------------
   Max    0.659926
   Res    0.050097    sqrt( Sum f_i^2 / 3N )
----------------------------------------
   Max    0.178412    constrained

Stress-tensor-Voigt (kbar):       -0.94        0.06       -1.62       -0.51        0.11       -0.06
(Free)E + p*V (eV/cell)   -31913.1514
Target enthalpy (eV/cell)   -31915.3777

siesta: Stress tensor (static) (eV/Ang**3):
        -0.000585   -0.000316   -0.000039
        -0.000316    0.000040    0.000069
        -0.000039    0.000069   -0.001011

siesta: Pressure (static):          0.83127244  kBar

siesta: Stress tensor (total) (eV/Ang**3):
        -0.000585   -0.000316   -0.000039
        -0.000316    0.000040    0.000069
        -0.000039    0.000069   -0.001011

siesta: Pressure (total):          0.83127244  kBar

* Maximum dynamic memory allocated =  1905 MB

siesta:                 ==============================
                            Begin CG move =     77
                        ==============================
k-point displ. along   2 input, could be:     0.00    0.50
 Kpoints in:            4 . Kpoints trimmed:            4

siesta: k-grid: Number of k-points =     4
siesta: k-grid: Cutoff (effective) =    12.500 Ang
siesta: k-grid: Supercell and displacements
siesta: k-grid:    3   0   0      0.000
siesta: k-grid:    0   2   0      0.000
siesta: k-grid:    0   0   1      0.000
Naive supercell factors:     3    2    2

superc: Internal auxiliary supercell:     3 x     2 x     2  =      12
superc: Number of atoms, orbitals, and projectors:   1740  23004  27756

outcell: Unit cell vectors (Ang):
        9.959387   -0.022005    0.000000
       -0.037903   17.207788    0.000000
        0.000000    0.000000   25.000000

outcell: Cell vector modules (Ang)   :    9.959412   17.207830   25.000000
outcell: Cell angles (23,13,12) (deg):     90.0000     90.0000     90.2528
outcell: Cell volume (Ang**3)        :   4284.4548
New_DM. Step:    78
Re-using DM from previous geometry...
Re-using DM without extrapolation (not allowed)
Density Matrix sparsity pattern changed.

InitMesh: MESH =   108 x   180 x   270 =     5248800
InitMesh: Mesh cutoff (required, used) =   300.000   302.415 Ry

siesta: iscf   Eharris(eV)      E_KS(eV)   FreeEng(eV)   dDmax  Ef(eV)
siesta:    1   -31915.3498   -31916.4387   -31916.4670  0.0203 -4.9466
siesta:    2   -31917.7608   -31914.9728   -31915.0021  0.0724 -4.8189
siesta:    3   -31915.3502   -31916.2437   -31916.2921  0.0133 -4.9593
siesta:    4   -31915.3331   -31916.2425   -31916.2606  0.0126 -4.9548
siesta:    5   -31915.3309   -31916.0674   -31916.0906  0.0103 -4.9561
siesta:    6   -31915.3375   -31915.4127   -31915.4365  0.0044 -4.9612
siesta:    7   -31915.3321   -31915.3242   -31915.3466  0.0041 -4.9539
siesta:    8   -31915.3301   -31915.3072   -31915.3308  0.0025 -4.9521
siesta:    9   -31915.3296   -31915.3078   -31915.3322  0.0014 -4.9520
siesta:   10   -31915.3295   -31915.3126   -31915.3372  0.0011 -4.9518
siesta:   11   -31915.3293   -31915.3187   -31915.3434  0.0005 -4.9517
siesta:   12   -31915.3293   -31915.3215   -31915.3463  0.0004 -4.9516
siesta:   13   -31915.3292   -31915.3259   -31915.3508  0.0002 -4.9516
siesta:   14   -31915.3292   -31915.3254   -31915.3503  0.0002 -4.9516
siesta:   15   -31915.3292   -31915.3246   -31915.3495  0.0002 -4.9517
siesta:   16   -31915.3292   -31915.3258   -31915.3507  0.0002 -4.9517
siesta:   17   -31915.3293   -31915.3283   -31915.3532  0.0001 -4.9517
siesta:   18   -31915.3293   -31915.3287   -31915.3536  0.0002 -4.9517
siesta:   19   -31915.3293   -31915.3288   -31915.3537  0.0001 -4.9517
siesta:   20   -31915.3293   -31915.3290   -31915.3539  0.0001 -4.9517
siesta:   21   -31915.3293   -31915.3290   -31915.3539  0.0001 -4.9517
siesta:   22   -31915.3293   -31915.3289   -31915.3538  0.0001 -4.9517
siesta:   23   -31915.3293   -31915.3289   -31915.3538  0.0001 -4.9517
siesta:   24   -31915.3293   -31915.3286   -31915.3535  0.0001 -4.9517
siesta:   25   -31915.3293   -31915.3290   -31915.3538  0.0001 -4.9517
siesta:   26   -31915.3293   -31915.3292   -31915.3541  0.0001 -4.9517
siesta:   27   -31915.3293   -31915.3296   -31915.3545  0.0001 -4.9517

siesta: E_KS(eV) =           -31915.3296

siesta: Atomic forces (eV/Ang):
----------------------------------------
   Tot    0.272490    0.095782    0.019247
----------------------------------------
   Max    0.716288
   Res    0.083955    sqrt( Sum f_i^2 / 3N )
----------------------------------------
   Max    0.428768    constrained

Stress-tensor-Voigt (kbar):       -2.57       -2.03       -1.89       -2.93        0.10       -0.05
(Free)E + p*V (eV/cell)   -31909.5697
Target enthalpy (eV/cell)   -31915.3545

siesta: Stress tensor (static) (eV/Ang**3):
        -0.001605   -0.001831   -0.000032
        -0.001831   -0.001265    0.000060
        -0.000032    0.000060   -0.001181

siesta: Pressure (static):          2.16324419  kBar

siesta: Stress tensor (total) (eV/Ang**3):
        -0.001605   -0.001831   -0.000032
        -0.001831   -0.001265    0.000060
        -0.000032    0.000060   -0.001181

siesta: Pressure (total):          2.16324419  kBar

* Maximum dynamic memory allocated =  1909 MB

siesta:                 ==============================
                            Begin CG move =     78
                        ==============================
k-point displ. along   2 input, could be:     0.00    0.50
 Kpoints in:            4 . Kpoints trimmed:            4

siesta: k-grid: Number of k-points =     4
siesta: k-grid: Cutoff (effective) =    12.500 Ang
siesta: k-grid: Supercell and displacements
siesta: k-grid:    3   0   0      0.000
siesta: k-grid:    0   2   0      0.000
siesta: k-grid:    0   0   1      0.000
Naive supercell factors:     3    2    2

superc: Internal auxiliary supercell:     3 x     2 x     2  =      12
superc: Number of atoms, orbitals, and projectors:   1740  23004  27756

outcell: Unit cell vectors (Ang):
        9.964268   -0.007005    0.000000
       -0.012070   17.220773    0.000000
        0.000000    0.000000   25.000000

outcell: Cell vector modules (Ang)   :    9.964271   17.220777   25.000000
outcell: Cell angles (23,13,12) (deg):     90.0000     90.0000     90.0804
outcell: Cell volume (Ang**3)        :   4289.8078
New_DM. Step:    79
Re-using DM from previous geometry...
Re-using DM without extrapolation (not allowed)
Density Matrix sparsity pattern changed.

InitMesh: MESH =   108 x   180 x   270 =     5248800
InitMesh: Mesh cutoff (required, used) =   300.000   301.955 Ry

siesta: iscf   Eharris(eV)      E_KS(eV)   FreeEng(eV)   dDmax  Ef(eV)
siesta:    1   -31915.3768   -31914.4190   -31914.4439  0.0150 -4.9701
siesta:    2   -31917.2106   -31915.1896   -31915.2062  0.1149 -5.3131
siesta:    3   -31915.3513   -31914.5819   -31914.6021  0.0123 -4.9492
siesta:    4   -31915.3500   -31914.5770   -31914.6103  0.0124 -4.9571
siesta:    5   -31915.3485   -31914.7824   -31914.8105  0.0090 -4.9510
siesta:    6   -31915.3505   -31915.2798   -31915.3118  0.0064 -4.9510
siesta:    7   -31915.3497   -31915.3311   -31915.3630  0.0007 -4.9584
siesta:    8   -31915.3497   -31915.3372   -31915.3652  0.0006 -4.9597
siesta:    9   -31915.3499   -31915.3409   -31915.3687  0.0005 -4.9600
siesta:   10   -31915.3496   -31915.3439   -31915.3715  0.0003 -4.9591
siesta:   11   -31915.3497   -31915.3459   -31915.3737  0.0003 -4.9595
siesta:   12   -31915.3497   -31915.3468   -31915.3745  0.0002 -4.9594
siesta:   13   -31915.3496   -31915.3488   -31915.3765  0.0001 -4.9592

siesta: E_KS(eV) =           -31915.3478

siesta: Atomic forces (eV/Ang):
----------------------------------------
   Tot    0.263154    0.025931    0.005770
----------------------------------------
   Max    0.668137
   Res    0.052956    sqrt( Sum f_i^2 / 3N )
----------------------------------------
   Max    0.219007    constrained

Stress-tensor-Voigt (kbar):       -1.22       -0.28       -1.66       -0.89        0.11       -0.06
(Free)E + p*V (eV/cell)   -31912.5458
Target enthalpy (eV/cell)   -31915.3756

siesta: Stress tensor (static) (eV/Ang**3):
        -0.000764   -0.000556   -0.000039
        -0.000556   -0.000176    0.000066
        -0.000039    0.000066   -0.001039

siesta: Pressure (static):          1.05689747  kBar

siesta: Stress tensor (total) (eV/Ang**3):
        -0.000764   -0.000556   -0.000039
        -0.000556   -0.000176    0.000066
        -0.000039    0.000066   -0.001039

siesta: Pressure (total):          1.05689747  kBar

cgvc: Finished line minimization   30.  Mean atomic displacement =    0.0105

* Maximum dynamic memory allocated =  1913 MB

siesta:                 ==============================
                            Begin CG move =     79
                        ==============================
k-point displ. along   2 input, could be:     0.00    0.50
 Kpoints in:            4 . Kpoints trimmed:            4

siesta: k-grid: Number of k-points =     4
siesta: k-grid: Cutoff (effective) =    12.500 Ang
siesta: k-grid: Supercell and displacements
siesta: k-grid:    3   0   0      0.000
siesta: k-grid:    0   2   0      0.000
siesta: k-grid:    0   0   1      0.000
Naive supercell factors:     3    2    2

superc: Internal auxiliary supercell:     3 x     2 x     2  =      12
superc: Number of atoms, orbitals, and projectors:   1740  23004  27756

outcell: Unit cell vectors (Ang):
        9.985105   -0.002170    0.000000
       -0.003743   17.219063    0.000000
        0.000000    0.000000   25.000000

outcell: Cell vector modules (Ang)   :    9.985105   17.219063   25.000000
outcell: Cell angles (23,13,12) (deg):     90.0000     90.0000     90.0249
outcell: Cell volume (Ang**3)        :   4298.3535
New_DM. Step:    80
Re-using DM from previous geometry...
Re-using DM without extrapolation (not allowed)
Density Matrix sparsity pattern changed.

InitMesh: MESH =   108 x   180 x   270 =     5248800
InitMesh: Mesh cutoff (required, used) =   300.000   302.014 Ry
