Siesta Version:                                        siesta-3.1
Architecture  : x86_64-unknown-linux-gnu--unknown
Compiler flags: mpif90 -g -O2
PARALLEL version

* Running on    4 nodes in parallel
>> Start of run:  13-NOV-2019  14:03:58

                           ***********************       
                           *  WELCOME TO SIESTA  *       
                           ***********************       

reinit: Reading from standard input
************************** Dump of input data file ****************************
SystemName TiS3
SystemLabel TiS3
NumberOfAtoms 72
SpinPolarized .true.
NumberOfSpecies 3
%block ChemicalSpeciesLabel
1  22 Ti
2  16 S
3  6 C
%endblock ChemicalSpeciesLabel
XC.functional		GGA
XC.authors		PBE
PAO.BasisSize		DZP
PAO.EnergyShift		65 meV
LatticeConstant 1.0 Ang
%block LatticeParameters
4.94760 16.89350 25.00000 90.00000 90.00000 90.00000
%endblock LatticeParameters
AtomicCoordinatesFormat  Fractional
%block AtomicCoordinatesAndAtomicSpecies
0.326889	0.050018	0.09482	1
0.326763	0.249999	0.09478	1
0.326878	0.449981	0.094819	1
0.327156	0.649975	0.094933	1
0.327169	0.850021	0.094933	1
0.826895	0.14999	-0.014647	1
0.826899	0.350009	-0.01465	1
0.827094	0.550013	-0.01456	1
0.82724	0.749999	-0.014502	1
0.827101	0.949982	-0.014557	1
0.615856	0.049952	0.923891	2
0.615614	0.250003	0.923897	2
0.61582	0.450048	0.923896	2
0.616019	0.650062	0.923979	2
0.616003	0.849941	0.923985	2
0.538085	0.150041	0.156473	2
0.538087	0.349965	0.156471	2
0.538327	0.54992	0.156532	2
0.539191	0.750001	0.156407	2
0.538327	0.950081	0.156535	2
0.826813	0.050028	0.058061	2
0.826797	0.250001	0.058018	2
0.82681	0.44997	0.058058	2
0.827148	0.649981	0.05817	2
0.827161	0.850016	0.058172	2
0.326794	0.149991	0.022276	2
0.326799	0.350008	0.022276	2
0.326965	0.550028	0.022349	2
0.327016	0.75	0.022422	2
0.326975	0.949971	0.02235	2
0.038226	0.049945	0.923896	2
0.037967	0.249995	0.923786	2
0.038193	0.450047	0.923884	2
0.038354	0.650008	0.923957	2
0.03834	0.849987	0.923953	2
0.115476	0.150037	0.156439	2
0.115476	0.34996	0.156439	2
0.115723	0.549879	0.156532	2
0.116692	0.749999	0.156782	2
0.115725	0.950117	0.156532	2
0.370365	0.208229	0.30908	3
0.370388	0.458239	0.308383	3
0.3705	0.70823	0.306862	3
0.370445	0.958221	0.307885	3
0.870376	0.208232	0.309032	3
0.870392	0.458234	0.308324	3
0.870489	0.708228	0.306799	3
0.870449	0.95823	0.307827	3
0.370386	0.04176	0.308383	3
0.370372	0.291772	0.30908	3
0.37045	0.541777	0.307885	3
0.370497	0.791769	0.306862	3
0.870393	0.041765	0.308324	3
0.870374	0.291768	0.309032	3
0.87045	0.54177	0.307826	3
0.870487	0.79177	0.306799	3
0.120376	0.083235	0.308608	3
0.120348	0.333233	0.308981	3
0.120476	0.583236	0.307572	3
0.120512	0.833235	0.307012	3
0.620399	0.083236	0.308591	3
0.620381	0.333233	0.308964	3
0.620465	0.583234	0.307552	3
0.620476	0.833236	0.306991	3
0.120346	0.166767	0.308981	3
0.120376	0.416765	0.308608	3
0.120514	0.666765	0.307012	3
0.120471	0.916762	0.307572	3
0.620378	0.166768	0.308964	3
0.620398	0.416764	0.308591	3
0.620478	0.666763	0.30699	3
0.620462	0.916764	0.307553	3
%endblock AtomicCoordinatesAndAtomicSpecies
DM.MixingWeight		0.05
DM.NumberPulay		8
DM.Tolerance		1.d-4
MaxSCFIterations		300
MD.TypeOfRun		CG
MD.VariableCell		.true.
MD.MaxForceTol		0.01 eV/Ang
MD.NumCGsteps		1000
#MD.MaxCGDispl		0.15 Ang
%block GeometryConstraints
 stress 3 4 5
 position  1 0.0  0.0  1.0
%endblock GeometryConstraints
MeshCutoff		300.0 Ry
WriteCoorXmol		yes
%block kgrid_Monkhorst_Pack
   6   0   0  0.0
   0   2   0  0.0
   0   0   1  0.0
%endblock Kgrid_Monkhorst_Pack
UseSaveData           .true.
SaveRho                 .true.       # Write valence pseudocharge at the mesh
************************** End of input data file *****************************

reinit: -----------------------------------------------------------------------
reinit: System Name: TiS3
reinit: -----------------------------------------------------------------------
reinit: System Label: TiS3                                                        
reinit: -----------------------------------------------------------------------

initatom: Reading input for the pseudopotentials and atomic orbitals ----------
 Species number:            1  Label: Ti Atomic number:          22
 Species number:            2  Label: S Atomic number:          16
 Species number:            3  Label: C Atomic number:           6
Ground state valence configuration:   4s02  3d02
Reading pseudopotential information in formatted form from Ti.psf

Valence configuration for pseudopotential generation:
4s( 2.00) rc: 2.71
4p( 0.00) rc: 2.71
3d( 2.00) rc: 2.45
4f( 0.00) rc: 2.45
Ground state valence configuration:   3s02  3p04
Reading pseudopotential information in formatted form from S.psf

Valence configuration for pseudopotential generation:
3s( 2.00) rc: 1.61
3p( 4.00) rc: 1.76
3d( 0.00) rc: 1.92
4f( 0.00) rc: 1.92
Ground state valence configuration:   2s02  2p02
Reading pseudopotential information in formatted form from C.psf

Valence configuration for pseudopotential generation:
2s( 2.00) rc: 1.54
2p( 2.00) rc: 1.54
3d( 0.00) rc: 1.54
4f( 0.00) rc: 1.54
For Ti, standard SIESTA heuristics set lmxkb to 3
 (one more than the basis l, including polarization orbitals).
Use PS.lmax or PS.KBprojectors blocks to override.
For S, standard SIESTA heuristics set lmxkb to 3
 (one more than the basis l, including polarization orbitals).
Use PS.lmax or PS.KBprojectors blocks to override.
For C, standard SIESTA heuristics set lmxkb to 3
 (one more than the basis l, including polarization orbitals).
Use PS.lmax or PS.KBprojectors blocks to override.

<basis_specs>
===============================================================================
Ti                   Z=  22    Mass=  47.880        Charge= 0.17977+309
Lmxo=2 Lmxkb= 3    BasisType=split      Semic=F
L=0  Nsemic=0  Cnfigmx=4
          n=1  nzeta=2  polorb=1
            splnorm:   0.15000    
               vcte:    0.0000    
               rinn:    0.0000    
                rcs:    0.0000      0.0000    
            lambdas:    1.0000      1.0000    
L=1  Nsemic=0  Cnfigmx=4
L=2  Nsemic=0  Cnfigmx=3
          n=1  nzeta=2  polorb=0
            splnorm:   0.15000    
               vcte:    0.0000    
               rinn:    0.0000    
                rcs:    0.0000      0.0000    
            lambdas:    1.0000      1.0000    
-------------------------------------------------------------------------------
L=0  Nkbl=1  erefs: 0.17977+309
L=1  Nkbl=1  erefs: 0.17977+309
L=2  Nkbl=1  erefs: 0.17977+309
L=3  Nkbl=1  erefs: 0.17977+309
===============================================================================
</basis_specs>

atom: Called for Ti                    (Z =  22)

read_vps: Pseudopotential generation method:
read_vps: ATM3      Troullier-Martins                       
Total valence charge:    4.00000

read_vps: Pseudopotential includes a core correction:
read_vps: Pseudo-core for xc-correction

xc_check: Exchange-correlation functional:
xc_check: GGA Perdew, Burke & Ernzerhof 1996
V l=0 = -2*Zval/r beyond r=  3.2266
V l=1 = -2*Zval/r beyond r=  3.2266
V l=2 = -2*Zval/r beyond r=  3.2266
V l=3 = -2*Zval/r beyond r=  3.2266
All V_l potentials equal beyond r=  2.6749
This should be close to max(r_c) in ps generation
All pots = -2*Zval/r beyond r=  3.2266

VLOCAL1: 99.0% of the norm of Vloc inside      6.067 Ry
VLOCAL1: 99.9% of the norm of Vloc inside     13.826 Ry
atom: Maximum radius for 4*pi*r*r*local-pseudopot. charge    3.18650
atom: Maximum radius for r*vlocal+2*Zval:    2.77713
GHOST: No ghost state for L =  0
GHOST: No ghost state for L =  1
GHOST: No ghost state for L =  2
GHOST: No ghost state for L =  3

KBgen: Kleinman-Bylander projectors: 
   l= 0   rc=  3.656209   el= -0.325100   Ekb=  2.704161   kbcos=  0.283955
   l= 1   rc=  3.748769   el= -0.108822   Ekb=  1.406241   kbcos=  0.273406
   l= 2   rc=  3.267166   el= -0.324546   Ekb= -7.701284   kbcos= -0.636873
   l= 3   rc=  3.990551   el=  0.003060   Ekb= -1.295170   kbcos= -0.013833

KBgen: Total number of  Kleinman-Bylander projectors:   16
atom: -------------------------------------------------------------------------

atom: SANKEY-TYPE ORBITALS:
atom: Selected multiple-zeta basis: split     

SPLIT: Orbitals with angular momentum L= 0

SPLIT: Basis orbitals for state 4s

SPLIT: PAO cut-off radius determined from an
SPLIT: energy shift=  0.004777 Ry

   izeta = 1
                 lambda =    1.000000
                     rc =    8.448122
                 energy =   -0.320243
                kinetic =    0.225933
    potential(screened) =   -0.546176
       potential(ionic) =   -2.398113

   izeta = 2
                 rmatch =    7.181023
              splitnorm =    0.150000
                 energy =   -0.277986
                kinetic =    0.361117
    potential(screened) =   -0.639103
       potential(ionic) =   -2.603312

SPLIT: Orbitals with angular momentum L= 2

SPLIT: Basis orbitals for state 3d

SPLIT: PAO cut-off radius determined from an
SPLIT: energy shift=  0.004777 Ry

   izeta = 1
                 lambda =    1.000000
                     rc =    5.806269
                 energy =   -0.319832
                kinetic =    5.305924
    potential(screened) =   -5.625757
       potential(ionic) =   -8.134583

   izeta = 2
                 rmatch =    3.107819
              splitnorm =    0.150000
                 energy =   -0.130887
                kinetic =    7.291131
    potential(screened) =   -7.422018
       potential(ionic) =  -10.057457

POLgen: Perturbative polarization orbital with L=  1

POLgen: Polarization orbital for state 4s

   izeta = 1
                     rc =    8.448122
                 energy =   -0.098258
                kinetic =    0.420436
    potential(screened) =   -0.518694
       potential(ionic) =   -2.271734
atom: Total number of Sankey-type orbitals: 15

atm_pop: Valence configuration (for local Pseudopot. screening):
 4s( 2.00)                                                            
 4p( 0.00)                                                            
 3d( 2.00)                                                            
Vna: chval, zval:    4.00000   4.00000

Vna:  Cut-off radius for the neutral-atom potential:   8.448122
comcore: Pseudo-core radius Rcore=  4.578782

atom: _________________________________________________________________________

<basis_specs>
===============================================================================
S                    Z=  16    Mass=  32.070        Charge= 0.17977+309
Lmxo=1 Lmxkb= 3    BasisType=split      Semic=F
L=0  Nsemic=0  Cnfigmx=3
          n=1  nzeta=2  polorb=0
            splnorm:   0.15000    
               vcte:    0.0000    
               rinn:    0.0000    
                rcs:    0.0000      0.0000    
            lambdas:    1.0000      1.0000    
L=1  Nsemic=0  Cnfigmx=3
          n=1  nzeta=2  polorb=1
            splnorm:   0.15000    
               vcte:    0.0000    
               rinn:    0.0000    
                rcs:    0.0000      0.0000    
            lambdas:    1.0000      1.0000    
-------------------------------------------------------------------------------
L=0  Nkbl=1  erefs: 0.17977+309
L=1  Nkbl=1  erefs: 0.17977+309
L=2  Nkbl=1  erefs: 0.17977+309
L=3  Nkbl=1  erefs: 0.17977+309
===============================================================================
</basis_specs>

atom: Called for S                     (Z =  16)

read_vps: Pseudopotential generation method:
read_vps: ATM3      Troullier-Martins                       
Total valence charge:    6.00000

read_vps: Pseudopotential includes a core correction:
read_vps: Pseudo-core for xc-correction

xc_check: Exchange-correlation functional:
xc_check: GGA Perdew, Burke & Ernzerhof 1996
V l=0 = -2*Zval/r beyond r=  1.7157
V l=1 = -2*Zval/r beyond r=  1.7813
V l=2 = -2*Zval/r beyond r=  1.8962
V l=3 = -2*Zval/r beyond r=  1.8962
All V_l potentials equal beyond r=  1.8962
This should be close to max(r_c) in ps generation
All pots = -2*Zval/r beyond r=  1.8962

VLOCAL1: 99.0% of the norm of Vloc inside     12.073 Ry
VLOCAL1: 99.9% of the norm of Vloc inside     27.515 Ry
atom: Maximum radius for 4*pi*r*r*local-pseudopot. charge    2.28723
atom: Maximum radius for r*vlocal+2*Zval:    1.99338
GHOST: No ghost state for L =  0
GHOST: No ghost state for L =  1
GHOST: No ghost state for L =  2
GHOST: No ghost state for L =  3

KBgen: Kleinman-Bylander projectors: 
   l= 0   rc=  2.095595   el= -1.260012   Ekb=  7.575815   kbcos=  0.308447
   l= 1   rc=  2.148649   el= -0.516050   Ekb=  2.724996   kbcos=  0.294943
   l= 2   rc=  2.175677   el=  0.001998   Ekb= -2.719245   kbcos= -0.053867
   l= 3   rc=  2.345140   el=  0.003105   Ekb= -0.697074   kbcos= -0.004230

KBgen: Total number of  Kleinman-Bylander projectors:   16
atom: -------------------------------------------------------------------------

atom: SANKEY-TYPE ORBITALS:
atom: Selected multiple-zeta basis: split     

SPLIT: Orbitals with angular momentum L= 0

SPLIT: Basis orbitals for state 3s

SPLIT: PAO cut-off radius determined from an
SPLIT: energy shift=  0.004777 Ry

   izeta = 1
                 lambda =    1.000000
                     rc =    4.842249
                 energy =   -1.255602
                kinetic =    0.842930
    potential(screened) =   -2.098533
       potential(ionic) =   -7.019684

   izeta = 2
                 rmatch =    3.542623
              splitnorm =    0.150000
                 energy =   -1.124633
                kinetic =    1.297137
    potential(screened) =   -2.421770
       potential(ionic) =   -7.574141

SPLIT: Orbitals with angular momentum L= 1

SPLIT: Basis orbitals for state 3p

SPLIT: PAO cut-off radius determined from an
SPLIT: energy shift=  0.004777 Ry

   izeta = 1
                 lambda =    1.000000
                     rc =    6.064098
                 energy =   -0.511517
                kinetic =    1.429029
    potential(screened) =   -1.940546
       potential(ionic) =   -6.510685

   izeta = 2
                 rmatch =    3.964470
              splitnorm =    0.150000
                 energy =   -0.369917
                kinetic =    2.112725
    potential(screened) =   -2.482643
       potential(ionic) =   -7.463487

POLgen: Perturbative polarization orbital with L=  2

POLgen: Polarization orbital for state 3p

   izeta = 1
                     rc =    6.064098
                 energy =    0.629859
                kinetic =    1.964668
    potential(screened) =   -1.334809
       potential(ionic) =   -5.430423
atom: Total number of Sankey-type orbitals: 13

atm_pop: Valence configuration (for local Pseudopot. screening):
 3s( 2.00)                                                            
 3p( 4.00)                                                            
Vna: chval, zval:    6.00000   6.00000

Vna:  Cut-off radius for the neutral-atom potential:   6.064098
comcore: Pseudo-core radius Rcore=  2.496399

atom: _________________________________________________________________________

<basis_specs>
===============================================================================
C                    Z=   6    Mass=  12.010        Charge= 0.17977+309
Lmxo=1 Lmxkb= 3    BasisType=split      Semic=F
L=0  Nsemic=0  Cnfigmx=2
          n=1  nzeta=2  polorb=0
            splnorm:   0.15000    
               vcte:    0.0000    
               rinn:    0.0000    
                rcs:    0.0000      0.0000    
            lambdas:    1.0000      1.0000    
L=1  Nsemic=0  Cnfigmx=2
          n=1  nzeta=2  polorb=1
            splnorm:   0.15000    
               vcte:    0.0000    
               rinn:    0.0000    
                rcs:    0.0000      0.0000    
            lambdas:    1.0000      1.0000    
-------------------------------------------------------------------------------
L=0  Nkbl=1  erefs: 0.17977+309
L=1  Nkbl=1  erefs: 0.17977+309
L=2  Nkbl=1  erefs: 0.17977+309
L=3  Nkbl=1  erefs: 0.17977+309
===============================================================================
</basis_specs>

atom: Called for C                     (Z =   6)

read_vps: Pseudopotential generation method:
read_vps: ATM3      Troullier-Martins                       
Total valence charge:    4.00000

read_vps: Pseudopotential includes a core correction:
read_vps: Pseudo-core for xc-correction

xc_check: Exchange-correlation functional:
xc_check: GGA Perdew, Burke & Ernzerhof 1996
V l=0 = -2*Zval/r beyond r=  1.5227
V l=1 = -2*Zval/r beyond r=  1.5227
V l=2 = -2*Zval/r beyond r=  1.5227
V l=3 = -2*Zval/r beyond r=  1.5038
All V_l potentials equal beyond r=  1.5227
This should be close to max(r_c) in ps generation
All pots = -2*Zval/r beyond r=  1.5227

VLOCAL1: 99.0% of the norm of Vloc inside     18.722 Ry
VLOCAL1: 99.9% of the norm of Vloc inside     42.668 Ry
atom: Maximum radius for 4*pi*r*r*local-pseudopot. charge    1.83678
atom: Maximum radius for r*vlocal+2*Zval:    1.58088
GHOST: No ghost state for L =  0
GHOST: No ghost state for L =  1
GHOST: No ghost state for L =  2
GHOST: No ghost state for L =  3

KBgen: Kleinman-Bylander projectors: 
   l= 0   rc=  1.704034   el= -1.009801   Ekb=  5.335044   kbcos=  0.316824
   l= 1   rc=  1.704034   el= -0.388707   Ekb= -3.785862   kbcos= -0.366464
   l= 2   rc=  1.791422   el=  0.001971   Ekb= -0.970471   kbcos= -0.009212
   l= 3   rc=  1.859892   el=  0.003065   Ekb= -0.399525   kbcos= -0.001223

KBgen: Total number of  Kleinman-Bylander projectors:   16
atom: -------------------------------------------------------------------------

atom: SANKEY-TYPE ORBITALS:
atom: Selected multiple-zeta basis: split     

SPLIT: Orbitals with angular momentum L= 0

SPLIT: Basis orbitals for state 2s

SPLIT: PAO cut-off radius determined from an
SPLIT: energy shift=  0.004777 Ry

   izeta = 1
                 lambda =    1.000000
                     rc =    4.870301
                 energy =   -1.004978
                kinetic =    0.843912
    potential(screened) =   -1.848890
       potential(ionic) =   -5.399930

   izeta = 2
                 rmatch =    3.475094
              splitnorm =    0.150000
                 energy =   -0.867524
                kinetic =    1.299872
    potential(screened) =   -2.167396
       potential(ionic) =   -5.961732

SPLIT: Orbitals with angular momentum L= 1

SPLIT: Basis orbitals for state 2p

SPLIT: PAO cut-off radius determined from an
SPLIT: energy shift=  0.004777 Ry

   izeta = 1
                 lambda =    1.000000
                     rc =    6.099293
                 energy =   -0.384291
                kinetic =    2.361393
    potential(screened) =   -2.745684
       potential(ionic) =   -6.151019

   izeta = 2
                 rmatch =    3.699245
              splitnorm =    0.150000
                 energy =   -0.263576
                kinetic =    3.460758
    potential(screened) =   -3.724335
       potential(ionic) =   -7.494953

POLgen: Perturbative polarization orbital with L=  2

POLgen: Polarization orbital for state 2p

   izeta = 1
                     rc =    6.099293
                 energy =    1.042694
                kinetic =    2.181445
    potential(screened) =   -1.138752
       potential(ionic) =   -3.900921
atom: Total number of Sankey-type orbitals: 13

atm_pop: Valence configuration (for local Pseudopot. screening):
 2s( 2.00)                                                            
 2p( 2.00)                                                            
Vna: chval, zval:    4.00000   4.00000

Vna:  Cut-off radius for the neutral-atom potential:   6.099293
comcore: Pseudo-core radius Rcore=  1.791422

atom: _________________________________________________________________________

prinput: Basis input ----------------------------------------------------------

PAO.BasisType split     

%block ChemicalSpeciesLabel
    1   22 Ti                      # Species index, atomic number, species label
    2   16 S                       # Species index, atomic number, species label
    3    6 C                       # Species index, atomic number, species label
%endblock ChemicalSpeciesLabel

%block PAO.Basis                 # Define Basis set
Ti                    2                    # Species label, number of l-shells
 n=4   0   2 P   1                   # n, l, Nzeta, Polarization, NzetaPol
   8.448      7.181   
   1.000      1.000   
 n=3   2   2                         # n, l, Nzeta 
   5.806      3.108   
   1.000      1.000   
S                     2                    # Species label, number of l-shells
 n=3   0   2                         # n, l, Nzeta 
   4.842      3.543   
   1.000      1.000   
 n=3   1   2 P   1                   # n, l, Nzeta, Polarization, NzetaPol
   6.064      3.964   
   1.000      1.000   
C                     2                    # Species label, number of l-shells
 n=2   0   2                         # n, l, Nzeta 
   4.870      3.475   
   1.000      1.000   
 n=2   1   2 P   1                   # n, l, Nzeta, Polarization, NzetaPol
   6.099      3.699   
   1.000      1.000   
%endblock PAO.Basis

prinput: ----------------------------------------------------------------------

coor:   Atomic-coordinates input format  =     Fractional

siesta: WARNING: XV file not found

siesta: Atomic coordinates (Bohr) and species
siesta:      3.05629   1.59678   4.47960  1        1
siesta:      3.05511   7.98099   4.47771  1        2
siesta:      3.05618  14.36524   4.47955  1        3
siesta:      3.05878  20.74987   4.48494  1        4
siesta:      3.05890  27.13616   4.48494  1        5
siesta:      7.73115   4.78830  -0.69197  1        6
siesta:      7.73119  11.17372  -0.69211  1        7
siesta:      7.73301  17.55867  -0.68786  1        8
siesta:      7.73437  23.94304  -0.68512  1        9
siesta:      7.73307  30.32732  -0.68772  1       10
siesta:      5.75802   1.59467  43.64754  2       11
siesta:      5.75575   7.98112  43.64782  2       12
siesta:      5.75768  14.36738  43.64778  2       13
siesta:      5.75954  20.75264  43.65170  2       14
siesta:      5.75939  27.13360  43.65198  2       15
siesta:      5.03089   4.78992   7.39228  2       16
siesta:      5.03091  11.17232   7.39219  2       17
siesta:      5.03315  17.55570   7.39507  2       18
siesta:      5.04123  23.94311   7.38916  2       19
siesta:      5.03315  30.33048   7.39521  2       20
siesta:      7.73038   1.59710   2.74299  2       21
siesta:      7.73023   7.98106   2.74095  2       22
siesta:      7.73035  14.36489   2.74284  2       23
siesta:      7.73351  20.75006   2.74814  2       24
siesta:      7.73363  27.13600   2.74823  2       25
siesta:      3.05540   4.78833   1.05239  2       26
siesta:      3.05544  11.17369   1.05239  2       27
siesta:      3.05700  17.55915   1.05584  2       28
siesta:      3.05747  23.94308   1.05929  2       29
siesta:      3.05709  30.32697   1.05588  2       30
siesta:      0.35740   1.59445  43.64778  2       31
siesta:      0.35498   7.98087  43.64258  2       32
siesta:      0.35709  14.36735  43.64721  2       33
siesta:      0.35860  20.75092  43.65066  2       34
siesta:      0.35846  27.13507  43.65047  2       35
siesta:      1.07966   4.78980   7.39067  2       36
siesta:      1.07966  11.17216   7.39067  2       37
siesta:      1.08197  17.55439   7.39507  2       38
siesta:      1.09103  23.94304   7.40688  2       39
siesta:      1.08198  30.33163   7.39507  2       40
siesta:      3.46277   6.64752  14.60192  3       41
siesta:      3.46298  14.62887  14.56899  3       42
siesta:      3.46403  22.60961  14.49713  3       43
siesta:      3.46352  30.59034  14.54546  3       44
siesta:      8.13768   6.64762  14.59965  3       45
siesta:      8.13783  14.62871  14.56620  3       46
siesta:      8.13874  22.60954  14.49416  3       47
siesta:      8.13836  30.59063  14.54272  3       48
siesta:      3.46297   1.33315  14.56899  3       49
siesta:      3.46283   9.31456  14.60192  3       50
siesta:      3.46356  17.29574  14.54546  3       51
siesta:      3.46400  25.27651  14.49713  3       52
siesta:      8.13784   1.33331  14.56620  3       53
siesta:      8.13766   9.31443  14.59965  3       54
siesta:      8.13837  17.29552  14.54268  3       55
siesta:      8.13872  25.27655  14.49416  3       56
siesta:      1.12547   2.65720  14.57962  3       57
siesta:      1.12521  10.63816  14.59724  3       58
siesta:      1.12640  18.61928  14.53068  3       59
siesta:      1.12674  26.60028  14.50422  3       60
siesta:      5.80049   2.65723  14.57882  3       61
siesta:      5.80032  10.63816  14.59644  3       62
siesta:      5.80111  18.61922  14.52973  3       63
siesta:      5.80121  26.60031  14.50323  3       64
siesta:      1.12519   5.32389  14.59724  3       65
siesta:      1.12547  13.30485  14.57962  3       66
siesta:      1.12676  21.28587  14.50422  3       67
siesta:      1.12636  29.26680  14.53068  3       68
siesta:      5.80029   5.32392  14.59644  3       69
siesta:      5.80048  13.30482  14.57882  3       70
siesta:      5.80123  21.28581  14.50318  3       71
siesta:      5.80108  29.26687  14.52978  3       72

siesta: System type = bulk      

initatomlists: Number of atoms, orbitals, and projectors:     72   956  1152

siesta: ******************** Simulation parameters ****************************
siesta:
siesta: The following are some of the parameters of the simulation.
siesta: A complete list of the parameters used, including default values,
siesta: can be found in file out.fdf
siesta:
redata: Non-Collinear-spin run           =     F
redata: SpinPolarized (Up/Down) run      =     T
redata: Number of spin components        =     2
redata: Long output                      =     F
redata: Number of Atomic Species         =        3
redata: Charge density info will appear in .RHO file
redata: Write Mulliken Pop.              =     NO
redata: Mesh Cutoff                      =   300.0000  Ry
redata: Net charge of the system         =     0.0000 |e|
redata: Max. number of SCF Iter          =      300
redata: Performing Pulay mixing using    =     8 iterations
redata: Mix DM in first SCF step ?       =     F
redata: Write Pulay info on disk?        =     F
redata: Discard 1st Pulay DM after  kick =     F
redata: New DM Mixing Weight             =     0.0500
redata: New DM Occupancy tolerance       = 0.000000000001
redata: No kicks to SCF
redata: DM Mixing Weight for Kicks       =     0.5000
redata: DM Tolerance for SCF             =     0.000100
redata: Require Energy convergence for SCF =     F
redata: DM Energy tolerance for SCF      =     0.000100 eV
redata: Require Harris convergence for SCF =     F
redata: DM Harris energy tolerance for SCF =     0.000100 eV
redata: Antiferro initial spin density   =     F
redata: Using Saved Data (generic)   =     T
redata: Use continuation files for DM    =     T
redata: Neglect nonoverlap interactions  =     F
redata: Method of Calculation            =     Diagonalization
redata: Divide and Conquer               =     T
redata: Electronic Temperature           =     0.0019  Ry
redata: Fix the spin of the system       =     F
redata: Dynamics option                  =     CG coord. optimization
redata: Variable cell                    =     T
redata: Use continuation files for CG    =     T
redata: Max atomic displ per move        =     0.2000  Bohr
redata: Maximum number of CG moves       =     1000
redata: Force tolerance                  =     0.0004  Ry/Bohr
redata: Stress tolerance                 =     1.0000  GPa
redata: ***********************************************************************
Total number of electrons:   348.000000
Total ionic charge:   348.000000

* ProcessorY, Blocksize:    2  24

k-point displ. along   1 input, could be:     0.00    0.50
k-point displ. along   2 input, could be:     0.00    0.50
 Kpoints in:            8 . Kpoints trimmed:            8

siesta: k-grid: Number of k-points =     8
siesta: k-grid: Cutoff (effective) =    12.500 Ang
siesta: k-grid: Supercell and displacements
siesta: k-grid:    6   0   0      0.000
siesta: k-grid:    0   2   0      0.000
siesta: k-grid:    0   0   1      0.000
Naive supercell factors:     6    2    2

superc: Internal auxiliary supercell:     6 x     2 x     2  =      24
superc: Number of atoms, orbitals, and projectors:   1728  22944  27648

* Maximum dynamic memory allocated =     3 MB

siesta:                 ==============================
                            Begin CG move =      0
                        ==============================

superc: Internal auxiliary supercell:     6 x     2 x     2  =      24
superc: Number of atoms, orbitals, and projectors:   1728  22944  27648

outcell: Unit cell vectors (Ang):
        4.947600    0.000000    0.000000
        0.000000   16.893500    0.000000
        0.000000    0.000000   25.000000

outcell: Cell vector modules (Ang)   :    4.947600   16.893500   25.000000
outcell: Cell angles (23,13,12) (deg):     90.0000     90.0000     90.0000
outcell: Cell volume (Ang**3)        :   2089.5570
New_DM. Step:     1
Initializing Density Matrix...

InitMesh: MESH =    54 x   180 x   270 =     2624400
InitMesh: Mesh cutoff (required, used) =   300.000   313.767 Ry

* Maximum dynamic memory allocated =   753 MB

stepf: Fermi-Dirac step function

siesta: Program's energy decomposition (eV):
siesta: Ebs     =     -4609.349911
siesta: Eions   =     23488.662927
siesta: Ena     =      5284.145271
siesta: Ekin    =      7317.938443
siesta: Enl     =       386.232895
siesta: DEna    =        -0.000006
siesta: DUscf   =         0.000000
siesta: DUext   =         0.000000
siesta: Exc     =     -5570.145457
siesta: eta*DQ  =         0.000000
siesta: Emadel  =         0.000000
siesta: Emeta   =         0.000000
siesta: Emolmec =         0.000000
siesta: Ekinion =         0.000000
siesta: Eharris =    -15836.570290
siesta: Etot    =    -16070.491781
siesta: FreeEng =    -16070.491781

siesta: iscf   Eharris(eV)      E_KS(eV)   FreeEng(eV)   dDmax  Ef(eV)
siesta:    1   -15836.5703   -16070.4918   -16070.4918  0.9007 -5.6904
timer: Routine,Calls,Time,% = IterSCF        1     345.339  98.24
elaps: Routine,Calls,Wall,% = IterSCF        1      86.508  98.24
siesta:    2   -18992.3184   -15806.5346   -15806.5944  2.0097-10.8068
siesta:    3   -15982.6606   -15968.6949   -15968.7622  0.6195 -4.2519
siesta:    4   -15895.4006   -15921.8630   -15921.9469  0.4769 -4.9953
siesta:    5   -15919.1968   -15856.3597   -15856.4228  0.3246 -4.7999
siesta:    6   -15914.4027   -15843.2730   -15843.3093  0.2392 -4.8617
siesta:    7   -15912.4077   -15840.6924   -15840.7234  0.1841 -4.8965
siesta:    8   -15911.7255   -15844.7081   -15844.7422  0.1676 -4.8894
siesta:    9   -15911.7342   -15847.9043   -15847.9357  0.1576 -4.9053
siesta:   10   -15912.3085   -15875.6543   -15875.6798  0.1166 -4.9591
siesta:   11   -15912.4809   -15887.4942   -15887.5065  0.1101 -5.0943
siesta:   12   -15912.6443   -15894.1375   -15894.1492  0.0821 -5.2280
siesta:   13   -15912.7273   -15895.5847   -15895.5909  0.0690 -5.2685
siesta:   14   -15912.9964   -15903.0504   -15903.0566  0.0413 -5.3331
siesta:   15   -15912.7039   -15900.7430   -15900.7490  0.0261 -5.1070
siesta:   16   -15912.7120   -15901.5227   -15901.5278  0.0251 -5.0383
siesta:   17   -15912.7150   -15902.7862   -15902.7922  0.0335 -5.0075
siesta:   18   -15912.7605   -15907.7033   -15907.7129  0.0209 -4.9832
siesta:   19   -15912.7614   -15909.0336   -15909.0407  0.0153 -4.9943
siesta:   20   -15912.7531   -15909.9439   -15909.9517  0.0162 -5.0299
siesta:   21   -15912.7558   -15910.3761   -15910.3856  0.0148 -5.0308
siesta:   22   -15912.7635   -15911.3999   -15911.4093  0.0124 -5.0220
siesta:   23   -15912.7754   -15912.7150   -15912.7242  0.0122 -5.0152
siesta:   24   -15912.7853   -15912.8791   -15912.8884  0.0070 -4.9960
siesta:   25   -15912.7896   -15913.1681   -15913.1778  0.0049 -4.9872
siesta:   26   -15912.7906   -15913.2480   -15913.2576  0.0053 -4.9802
siesta:   27   -15912.7952   -15913.4286   -15913.4387  0.0045 -4.9830
siesta:   28   -15912.7989   -15913.3200   -15913.3303  0.0035 -4.9798
siesta:   29   -15912.7991   -15913.2527   -15913.2634  0.0038 -4.9813
siesta:   30   -15912.8023   -15913.2849   -15913.2955  0.0039 -4.9802
siesta:   31   -15912.8021   -15913.1727   -15913.1835  0.0039 -4.9813
siesta:   32   -15912.8022   -15913.0217   -15913.0325  0.0037 -4.9822
siesta:   33   -15912.8050   -15912.8168   -15912.8276  0.0029 -4.9772
siesta:   34   -15912.8048   -15912.6943   -15912.7053  0.0026 -4.9777
siesta:   35   -15912.8065   -15912.5481   -15912.5589  0.0020 -4.9778
siesta:   36   -15912.8066   -15912.5565   -15912.5672  0.0018 -4.9771
siesta:   37   -15912.8069   -15912.7343   -15912.7451  0.0015 -4.9763
siesta:   38   -15912.8076   -15912.6775   -15912.6882  0.0015 -4.9748
siesta:   39   -15912.8078   -15912.6648   -15912.6755  0.0016 -4.9745
siesta:   40   -15912.8089   -15912.8321   -15912.8427  0.0007 -4.9727
siesta:   41   -15912.8089   -15912.8097   -15912.8201  0.0005 -4.9746
siesta:   42   -15912.8090   -15912.8164   -15912.8268  0.0004 -4.9751
siesta:   43   -15912.8090   -15912.8067   -15912.8171  0.0004 -4.9753
siesta:   44   -15912.8090   -15912.8174   -15912.8277  0.0003 -4.9750
siesta:   45   -15912.8090   -15912.7834   -15912.7938  0.0002 -4.9747
siesta:   46   -15912.8090   -15912.7787   -15912.7891  0.0002 -4.9748
siesta:   47   -15912.8091   -15912.7663   -15912.7766  0.0002 -4.9750
siesta:   48   -15912.8091   -15912.7655   -15912.7759  0.0002 -4.9751
siesta:   49   -15912.8091   -15912.7742   -15912.7845  0.0002 -4.9750
siesta:   50   -15912.8091   -15912.7926   -15912.8029  0.0001 -4.9748
siesta:   51   -15912.8091   -15912.8043   -15912.8146  0.0001 -4.9748

siesta: E_KS(eV) =           -15912.8154

siesta: E_KS - E_eggbox =    -15912.8154

siesta: Atomic forces (eV/Ang):
----------------------------------------
   Tot   -0.041970   -0.001536   -0.014854
----------------------------------------
   Max    0.009069
   Res    0.002465    sqrt( Sum f_i^2 / 3N )
----------------------------------------
   Max    0.009069    constrained

Stress-tensor-Voigt (kbar):      -23.76      -39.59       -0.22        0.00       -0.00       -0.00
(Free)E + p*V (eV/cell)   -15885.1954
Target enthalpy (eV/cell)   -15912.8257

siesta: Stress tensor (static) (eV/Ang**3):
        -0.014827    0.000001   -0.000001
         0.000001   -0.024708   -0.000001
        -0.000001   -0.000001   -0.000134

siesta: Pressure (static):         21.18592926  kBar

siesta: Stress tensor (total) (eV/Ang**3):
        -0.014827    0.000001   -0.000001
         0.000001   -0.024708   -0.000001
        -0.000001   -0.000001   -0.000134

siesta: Pressure (total):         21.18592926  kBar

cgvc: No target stress found, assuming hydrostatic MD.TargetPressure.

cgvc: Target stress (kBar)
cgvc:        -0.000       0.000       0.000
cgvc:         0.000      -0.000       0.000
cgvc:         0.000       0.000      -0.000

cgvc: WARNING: CG file not found

* Maximum dynamic memory allocated =   785 MB

siesta:                 ==============================
                            Begin CG move =      1
                        ==============================
k-point displ. along   1 input, could be:     0.00    0.50
k-point displ. along   2 input, could be:     0.00    0.50
 Kpoints in:            8 . Kpoints trimmed:            8

siesta: k-grid: Number of k-points =     8
siesta: k-grid: Cutoff (effective) =    12.500 Ang
siesta: k-grid: Supercell and displacements
siesta: k-grid:    6   0   0      0.000
siesta: k-grid:    0   2   0      0.000
siesta: k-grid:    0   0   1      0.000
Naive supercell factors:     6    2    2

superc: Internal auxiliary supercell:     6 x     2 x     2  =      24
superc: Number of atoms, orbitals, and projectors:   1728  22944  27648

outcell: Unit cell vectors (Ang):
        5.001487   -0.000003    0.000000
       -0.000009   17.200113    0.000000
        0.000000    0.000000   25.000000

outcell: Cell vector modules (Ang)   :    5.001487   17.200113   25.000000
outcell: Cell angles (23,13,12) (deg):     90.0000     90.0000     90.0001
outcell: Cell volume (Ang**3)        :   2150.6537
New_DM. Step:     2
Re-using DM from previous geometry...
Re-using DM without extrapolation (not allowed)
Density Matrix sparsity pattern changed.

InitMesh: MESH =    54 x   180 x   270 =     2624400
InitMesh: Mesh cutoff (required, used) =   300.000   302.680 Ry

siesta: iscf   Eharris(eV)      E_KS(eV)   FreeEng(eV)   dDmax  Ef(eV)
siesta:    1   -15915.6131   -15901.9755   -15901.9858  0.0890 -4.7861
siesta:    2   -17155.4779   -15883.9121   -15883.9406  0.8540 -7.2785
siesta:    3   -15914.0358   -15902.0192   -15902.0680  0.0512 -4.9135
siesta:    4   -15913.5413   -15902.9679   -15902.9792  0.0401 -5.1777
siesta:    5   -15913.7008   -15905.1446   -15905.1588  0.0336 -5.0932
siesta:    6   -15913.6922   -15906.5685   -15906.5759  0.0319 -5.1482
siesta:    7   -15919.1090   -15918.2220   -15918.2297  0.1523 -5.4661
siesta:    8   -15918.7317   -15918.3515   -15918.3920  0.1397 -5.4650
siesta:    9   -15918.3968   -15918.6129   -15918.6521  0.1304 -5.4645
siesta:   10   -15917.0197   -15920.7217   -15920.7604  0.1073 -5.4486
siesta:   11   -15914.0892   -15923.2789   -15923.3217  0.0310 -5.2555
siesta:   12   -15913.6886   -15923.7212   -15923.7479  0.0163 -5.2542
siesta:   13   -15913.4921   -15923.4753   -15923.4871  0.0197 -5.0565
siesta:   14   -15913.4973   -15923.1349   -15923.1437  0.0210 -5.0653
siesta:   15   -15913.5300   -15924.2680   -15924.2771  0.0203 -5.0961
siesta:   16   -15913.4520   -15922.5111   -15922.5199  0.0176 -5.0153
siesta:   17   -15913.4142   -15919.7794   -15919.7881  0.0150 -5.1291
siesta:   18   -15913.4186   -15919.4777   -15919.4879  0.0147 -5.1439
siesta:   19   -15913.3807   -15916.8508   -15916.8611  0.0118 -5.0701
siesta:   20   -15913.3796   -15915.5114   -15915.5217  0.0101 -5.0771
siesta:   21   -15913.4018   -15912.1869   -15912.1972  0.0068 -5.1491
siesta:   22   -15913.4084   -15911.7154   -15911.7257  0.0074 -5.1673
siesta:   23   -15913.3816   -15912.2025   -15912.2130  0.0069 -5.0913
siesta:   24   -15913.3828   -15912.2509   -15912.2612  0.0066 -5.0941
siesta:   25   -15913.3916   -15911.5214   -15911.5317  0.0074 -5.1171
siesta:   26   -15913.3463   -15912.5756   -15912.5860  0.0053 -4.9567
siesta:   27   -15913.3467   -15913.5648   -15913.5777  0.0040 -4.9899
siesta:   28   -15913.3424   -15913.5146   -15913.5277  0.0032 -4.9572
siesta:   29   -15913.3439   -15913.6268   -15913.6402  0.0038 -4.9542
siesta:   30   -15913.3430   -15913.5291   -15913.5423  0.0038 -4.9541
siesta:   31   -15913.3430   -15913.4871   -15913.5004  0.0034 -4.9568
siesta:   32   -15913.3424   -15913.4183   -15913.4317  0.0031 -4.9578
siesta:   33   -15913.3426   -15913.5802   -15913.5936  0.0030 -4.9585
siesta:   34   -15913.3412   -15913.4198   -15913.4332  0.0018 -4.9742
siesta:   35   -15913.3416   -15913.5564   -15913.5703  0.0016 -4.9762
siesta:   36   -15913.3414   -15913.5558   -15913.5697  0.0018 -4.9746
siesta:   37   -15913.3413   -15913.4961   -15913.5100  0.0015 -4.9739
siesta:   38   -15913.3410   -15913.2770   -15913.2908  0.0017 -4.9687
siesta:   39   -15913.3407   -15913.2079   -15913.2217  0.0011 -4.9633
siesta:   40   -15913.3406   -15913.1596   -15913.1733  0.0008 -4.9638
siesta:   41   -15913.3405   -15913.1509   -15913.1647  0.0004 -4.9666
siesta:   42   -15913.3405   -15913.1162   -15913.1300  0.0005 -4.9663
siesta:   43   -15913.3405   -15913.2500   -15913.2637  0.0003 -4.9653
siesta:   44   -15913.3405   -15913.2628   -15913.2765  0.0003 -4.9652
siesta:   45   -15913.3405   -15913.3097   -15913.3234  0.0002 -4.9644
siesta:   46   -15913.3405   -15913.3189   -15913.3327  0.0002 -4.9643
siesta:   47   -15913.3405   -15913.3373   -15913.3510  0.0002 -4.9643
siesta:   48   -15913.3405   -15913.3363   -15913.3501  0.0001 -4.9644
siesta:   49   -15913.3405   -15913.3457   -15913.3594  0.0000 -4.9644

siesta: E_KS(eV) =           -15913.3417

siesta: Atomic forces (eV/Ang):
----------------------------------------
   Tot    0.138231    0.000510   -0.025592
----------------------------------------
   Max    0.385345
   Res    0.132411    sqrt( Sum f_i^2 / 3N )
----------------------------------------
   Max    0.385345    constrained

Stress-tensor-Voigt (kbar):        7.63        1.54        4.79       -0.00       -0.00       -0.03
(Free)E + p*V (eV/cell)   -15919.6050
Target enthalpy (eV/cell)   -15913.3554

siesta: Stress tensor (static) (eV/Ang**3):
         0.004765   -0.000002   -0.000020
        -0.000002    0.000961   -0.000001
        -0.000020   -0.000001    0.002992

siesta: Pressure (static):         -4.65579802  kBar

siesta: Stress tensor (total) (eV/Ang**3):
         0.004765   -0.000002   -0.000020
        -0.000002    0.000961   -0.000001
        -0.000020   -0.000001    0.002992

siesta: Pressure (total):         -4.65579802  kBar

* Maximum dynamic memory allocated =   790 MB

siesta:                 ==============================
                            Begin CG move =      2
                        ==============================
k-point displ. along   1 input, could be:     0.00    0.50
k-point displ. along   2 input, could be:     0.00    0.50
 Kpoints in:            8 . Kpoints trimmed:            8

siesta: k-grid: Number of k-points =     8
siesta: k-grid: Cutoff (effective) =    12.500 Ang
siesta: k-grid: Supercell and displacements
siesta: k-grid:    6   0   0      0.000
siesta: k-grid:    0   2   0      0.000
siesta: k-grid:    0   0   1      0.000
Naive supercell factors:     6    2    2

superc: Internal auxiliary supercell:     6 x     2 x     2  =      24
superc: Number of atoms, orbitals, and projectors:   1728  22944  27648

outcell: Unit cell vectors (Ang):
        4.995843   -0.000002    0.000000
       -0.000008   17.167995    0.000000
        0.000000    0.000000   25.000000

outcell: Cell vector modules (Ang)   :    4.995843   17.167995   25.000000
outcell: Cell angles (23,13,12) (deg):     90.0000     90.0000     90.0001
outcell: Cell volume (Ang**3)        :   2144.2150
New_DM. Step:     3
Re-using DM from previous geometry...
Re-using DM without extrapolation (not allowed)
Density Matrix sparsity pattern changed.

InitMesh: MESH =    54 x   180 x   270 =     2624400
InitMesh: Mesh cutoff (required, used) =   300.000   303.814 Ry

siesta: iscf   Eharris(eV)      E_KS(eV)   FreeEng(eV)   dDmax  Ef(eV)
siesta:    1   -15913.3949   -15914.4652   -15914.4789  0.0094 -4.9899
siesta:    2   -15916.7213   -15913.0132   -15913.0212  0.1060 -4.7967
siesta:    3   -15913.3531   -15914.3312   -15914.3692  0.0035 -4.9539
siesta:    4   -15913.3509   -15914.2412   -15914.2541  0.0031 -4.9657
siesta:    5   -15913.3507   -15914.1889   -15914.2022  0.0029 -4.9606
siesta:    6   -15913.3526   -15913.6771   -15913.6901  0.0023 -4.9832
siesta:    7   -15913.3532   -15913.4625   -15913.4757  0.0025 -4.9832
siesta:    8   -15913.3499   -15913.3729   -15913.3858  0.0006 -4.9656
siesta:    9   -15913.3499   -15913.3590   -15913.3723  0.0004 -4.9623
siesta:   10   -15913.3498   -15913.3555   -15913.3687  0.0005 -4.9646
siesta:   11   -15913.3498   -15913.3492   -15913.3625  0.0001 -4.9643
siesta:   12   -15913.3498   -15913.3484   -15913.3616  0.0001 -4.9640

siesta: E_KS(eV) =           -15913.3480

siesta: Atomic forces (eV/Ang):
----------------------------------------
   Tot    0.199093    0.001549   -0.047871
----------------------------------------
   Max    0.351805
   Res    0.120353    sqrt( Sum f_i^2 / 3N )
----------------------------------------
   Max    0.351805    constrained

Stress-tensor-Voigt (kbar):        4.62       -2.12        4.31        0.00        0.00       -0.03
(Free)E + p*V (eV/cell)   -15916.4013
Target enthalpy (eV/cell)   -15913.3612

siesta: Stress tensor (static) (eV/Ang**3):
         0.002886    0.000000   -0.000018
         0.000000   -0.001324    0.000001
        -0.000018    0.000001    0.002692

siesta: Pressure (static):         -2.27156806  kBar

siesta: Stress tensor (total) (eV/Ang**3):
         0.002886    0.000000   -0.000018
         0.000000   -0.001324    0.000001
        -0.000018    0.000001    0.002692

siesta: Pressure (total):         -2.27156806  kBar

cgvc: Finished line minimization    1.  Mean atomic displacement =    0.0211

* Maximum dynamic memory allocated =   792 MB

siesta:                 ==============================
                            Begin CG move =      3
                        ==============================
k-point displ. along   1 input, could be:     0.00    0.50
k-point displ. along   2 input, could be:     0.00    0.50
 Kpoints in:            8 . Kpoints trimmed:            8

siesta: k-grid: Number of k-points =     8
siesta: k-grid: Cutoff (effective) =    12.500 Ang
siesta: k-grid: Supercell and displacements
siesta: k-grid:    6   0   0      0.000
siesta: k-grid:    0   2   0      0.000
siesta: k-grid:    0   0   1      0.000
Naive supercell factors:     6    2    2

superc: Internal auxiliary supercell:     6 x     2 x     2  =      24
superc: Number of atoms, orbitals, and projectors:   1728  22944  27648

outcell: Unit cell vectors (Ang):
        4.956975   -0.000006    0.000000
       -0.000022   17.316234    0.000000
        0.000000    0.000000   25.000000

outcell: Cell vector modules (Ang)   :    4.956975   17.316234   25.000000
outcell: Cell angles (23,13,12) (deg):     90.0000     90.0000     90.0001
outcell: Cell volume (Ang**3)        :   2145.9033
New_DM. Step:     4
Re-using DM from previous geometry...
Re-using DM without extrapolation (not allowed)
Density Matrix sparsity pattern changed.

InitMesh: MESH =    54 x   192 x   270 =     2799360
InitMesh: Mesh cutoff (required, used) =   300.000   322.366 Ry

siesta: iscf   Eharris(eV)      E_KS(eV)   FreeEng(eV)   dDmax  Ef(eV)
siesta:    1   -15913.3769   -15915.3724   -15915.3856  0.0192 -5.1767
siesta:    2   -15916.9106   -15912.8680   -15912.8799  0.1275 -5.3937
siesta:    3   -15913.2918   -15914.9172   -15914.9536  0.0151 -5.0506
siesta:    4   -15913.3007   -15913.9609   -15913.9728  0.0147 -4.9106
siesta:    5   -15913.2842   -15913.8714   -15913.8802  0.0128 -4.9072
siesta:    6   -15913.2625   -15913.3236   -15913.3341  0.0067 -4.9414
siesta:    7   -15913.2544   -15913.1893   -15913.2043  0.0037 -4.9457
siesta:    8   -15913.2504   -15913.1787   -15913.1936  0.0020 -4.9486
siesta:    9   -15913.2497   -15913.2069   -15913.2219  0.0021 -4.9515
siesta:   10   -15913.2485   -15913.2057   -15913.2208  0.0010 -4.9444
siesta:   11   -15913.2486   -15913.2195   -15913.2345  0.0009 -4.9406
siesta:   12   -15913.2485   -15913.2310   -15913.2459  0.0006 -4.9405
siesta:   13   -15913.2485   -15913.2330   -15913.2479  0.0005 -4.9404
siesta:   14   -15913.2484   -15913.2381   -15913.2530  0.0002 -4.9408
siesta:   15   -15913.2484   -15913.2508   -15913.2658  0.0001 -4.9414
siesta:   16   -15913.2484   -15913.2511   -15913.2660  0.0001 -4.9413

siesta: E_KS(eV) =           -15913.2500

siesta: Atomic forces (eV/Ang):
----------------------------------------
   Tot    0.084060    0.002019   -0.035165
----------------------------------------
   Max    0.398288
   Res    0.170473    sqrt( Sum f_i^2 / 3N )
----------------------------------------
   Max    0.398288    constrained

Stress-tensor-Voigt (kbar):      -15.38        9.27        3.41       -0.00       -0.00        0.01
(Free)E + p*V (eV/cell)   -15912.0549
Target enthalpy (eV/cell)   -15913.2649

siesta: Stress tensor (static) (eV/Ang**3):
        -0.009601   -0.000001    0.000005
        -0.000001    0.005783   -0.000001
         0.000005   -0.000001    0.002127

siesta: Pressure (static):          0.90347114  kBar

siesta: Stress tensor (total) (eV/Ang**3):
        -0.009601   -0.000001    0.000005
        -0.000001    0.005783   -0.000001
         0.000005   -0.000001    0.002127

siesta: Pressure (total):          0.90347114  kBar

* Maximum dynamic memory allocated =   815 MB

siesta:                 ==============================
                            Begin CG move =      4
                        ==============================
k-point displ. along   1 input, could be:     0.00    0.50
k-point displ. along   2 input, could be:     0.00    0.50
 Kpoints in:            8 . Kpoints trimmed:            8

siesta: k-grid: Number of k-points =     8
siesta: k-grid: Cutoff (effective) =    12.500 Ang
siesta: k-grid: Supercell and displacements
siesta: k-grid:    6   0   0      0.000
siesta: k-grid:    0   2   0      0.000
siesta: k-grid:    0   0   1      0.000
Naive supercell factors:     6    2    2

superc: Internal auxiliary supercell:     6 x     2 x     2  =      24
superc: Number of atoms, orbitals, and projectors:   1728  22944  27648

outcell: Unit cell vectors (Ang):
        4.983140   -0.000004    0.000000
       -0.000012   17.216441    0.000000
        0.000000    0.000000   25.000000

outcell: Cell vector modules (Ang)   :    4.983140   17.216441   25.000000
outcell: Cell angles (23,13,12) (deg):     90.0000     90.0000     90.0001
outcell: Cell volume (Ang**3)        :   2144.7984
New_DM. Step:     5
Re-using DM from previous geometry...
Re-using DM without extrapolation (not allowed)
Density Matrix sparsity pattern changed.

InitMesh: MESH =    54 x   180 x   270 =     2624400
InitMesh: Mesh cutoff (required, used) =   300.000   302.106 Ry

siesta: iscf   Eharris(eV)      E_KS(eV)   FreeEng(eV)   dDmax  Ef(eV)
siesta:    1   -15913.4871   -15911.9143   -15911.9292  0.0148 -4.9898
siesta:    2   -15917.6595   -15912.9500   -15912.9574  0.1103 -4.8663
siesta:    3   -15913.4210   -15912.0718   -15912.1296  0.0128 -4.9332
siesta:    4   -15913.4113   -15912.3715   -15912.3806  0.0113 -5.0096
siesta:    5   -15913.3993   -15912.4068   -15912.4186  0.0102 -4.9915
siesta:    6   -15913.3934   -15912.8947   -15912.9076  0.0058 -4.9772
siesta:    7   -15913.4008   -15913.1842   -15913.1985  0.0054 -4.9986
siesta:    8   -15913.3875   -15913.2796   -15913.2923  0.0018 -4.9521
siesta:    9   -15913.3870   -15913.2923   -15913.3066  0.0015 -4.9476
siesta:   10   -15913.3864   -15913.3166   -15913.3307  0.0012 -4.9476
siesta:   11   -15913.3850   -15913.3396   -15913.3534  0.0009 -4.9585
siesta:   12   -15913.3850   -15913.3494   -15913.3637  0.0006 -4.9568
siesta:   13   -15913.3850   -15913.3628   -15913.3770  0.0007 -4.9576
siesta:   14   -15913.3851   -15913.3829   -15913.3971  0.0003 -4.9548
siesta:   15   -15913.3850   -15913.3806   -15913.3947  0.0002 -4.9556
siesta:   16   -15913.3850   -15913.3793   -15913.3934  0.0001 -4.9554
siesta:   17   -15913.3850   -15913.3812   -15913.3953  0.0001 -4.9555

siesta: E_KS(eV) =           -15913.3835

siesta: Atomic forces (eV/Ang):
----------------------------------------
   Tot    0.153242    0.001407   -0.019314
----------------------------------------
   Max    0.136162
   Res    0.052699    sqrt( Sum f_i^2 / 3N )
----------------------------------------
   Max    0.136162    constrained

Stress-tensor-Voigt (kbar):       -1.84        1.18        3.99       -0.00       -0.00        0.00
(Free)E + p*V (eV/cell)   -15914.8864
Target enthalpy (eV/cell)   -15913.3976

siesta: Stress tensor (static) (eV/Ang**3):
        -0.001146   -0.000001    0.000002
        -0.000001    0.000735   -0.000000
         0.000002   -0.000000    0.002493

siesta: Pressure (static):         -1.11212245  kBar

siesta: Stress tensor (total) (eV/Ang**3):
        -0.001146   -0.000001    0.000002
        -0.000001    0.000735   -0.000000
         0.000002   -0.000000    0.002493

siesta: Pressure (total):         -1.11212245  kBar

cgvc: Finished line minimization    2.  Mean atomic displacement =    0.0069

* Maximum dynamic memory allocated =   818 MB

siesta:                 ==============================
                            Begin CG move =      5
                        ==============================
k-point displ. along   1 input, could be:     0.00    0.50
k-point displ. along   2 input, could be:     0.00    0.50
 Kpoints in:            8 . Kpoints trimmed:            8

siesta: k-grid: Number of k-points =     8
siesta: k-grid: Cutoff (effective) =    12.500 Ang
siesta: k-grid: Supercell and displacements
siesta: k-grid:    6   0   0      0.000
siesta: k-grid:    0   2   0      0.000
siesta: k-grid:    0   0   1      0.000
Naive supercell factors:     6    2    2

superc: Internal auxiliary supercell:     6 x     2 x     2  =      24
superc: Number of atoms, orbitals, and projectors:   1728  22944  27648

outcell: Unit cell vectors (Ang):
        4.994210    0.000007    0.000000
        0.000022   17.197531    0.000000
        0.000000    0.000000   25.000000

outcell: Cell vector modules (Ang)   :    4.994210   17.197531   25.000000
outcell: Cell angles (23,13,12) (deg):     90.0000     90.0000     89.9999
outcell: Cell volume (Ang**3)        :   2147.2021
New_DM. Step:     6
Re-using DM from previous geometry...
Re-using DM without extrapolation (not allowed)
Density Matrix sparsity pattern changed.

InitMesh: MESH =    54 x   180 x   270 =     2624400
InitMesh: Mesh cutoff (required, used) =   300.000   302.771 Ry

siesta: iscf   Eharris(eV)      E_KS(eV)   FreeEng(eV)   dDmax  Ef(eV)
siesta:    1   -15913.4396   -15913.4670   -15913.4812  0.0092 -5.0489
siesta:    2   -15915.2455   -15913.2293   -15913.2373  0.1013 -5.3822
siesta:    3   -15913.4109   -15913.4472   -15913.4762  0.0068 -4.9806
siesta:    4   -15913.4089   -15913.4285   -15913.4395  0.0057 -4.9513
siesta:    5   -15913.4058   -15913.4353   -15913.4474  0.0055 -4.9622
siesta:    6   -15913.4067   -15913.4160   -15913.4281  0.0036 -4.9452
siesta:    7   -15913.4109   -15913.4000   -15913.4122  0.0032 -4.9398
siesta:    8   -15913.4058   -15913.4022   -15913.4141  0.0014 -4.9529
siesta:    9   -15913.4053   -15913.4038   -15913.4160  0.0006 -4.9564
siesta:   10   -15913.4052   -15913.4048   -15913.4170  0.0001 -4.9580
siesta:   11   -15913.4052   -15913.4052   -15913.4173  0.0001 -4.9577
siesta:   12   -15913.4052   -15913.4054   -15913.4175  0.0001 -4.9579
siesta:   13   -15913.4051   -15913.4055   -15913.4176  0.0001 -4.9579

siesta: E_KS(eV) =           -15913.4055

siesta: Atomic forces (eV/Ang):
----------------------------------------
   Tot    0.131343   -0.000205   -0.000820
----------------------------------------
   Max    0.068048
   Res    0.031067    sqrt( Sum f_i^2 / 3N )
----------------------------------------
   Max    0.068048    constrained

Stress-tensor-Voigt (kbar):        0.19       -0.51        3.24        0.00       -0.00       -0.03
(Free)E + p*V (eV/cell)   -15914.7193
Target enthalpy (eV/cell)   -15913.4176

siesta: Stress tensor (static) (eV/Ang**3):
         0.000118    0.000000   -0.000021
         0.000000   -0.000321   -0.000001
        -0.000021   -0.000001    0.002022

siesta: Pressure (static):         -0.97130714  kBar

siesta: Stress tensor (total) (eV/Ang**3):
         0.000118    0.000000   -0.000021
         0.000000   -0.000321   -0.000001
        -0.000021   -0.000001    0.002022

siesta: Pressure (total):         -0.97130714  kBar

* Maximum dynamic memory allocated =   818 MB

siesta:                 ==============================
                            Begin CG move =      6
                        ==============================
k-point displ. along   1 input, could be:     0.00    0.50
k-point displ. along   2 input, could be:     0.00    0.50
 Kpoints in:            8 . Kpoints trimmed:            8

siesta: k-grid: Number of k-points =     8
siesta: k-grid: Cutoff (effective) =    12.500 Ang
siesta: k-grid: Supercell and displacements
siesta: k-grid:    6   0   0      0.000
siesta: k-grid:    0   2   0      0.000
siesta: k-grid:    0   0   1      0.000
Naive supercell factors:     6    2    2

superc: Internal auxiliary supercell:     6 x     2 x     2  =      24
superc: Number of atoms, orbitals, and projectors:   1728  22944  27648

outcell: Unit cell vectors (Ang):
        5.011923    0.000023    0.000000
        0.000078   17.167275    0.000000
        0.000000    0.000000   25.000000

outcell: Cell vector modules (Ang)   :    5.011923   17.167275   25.000000
outcell: Cell angles (23,13,12) (deg):     90.0000     90.0000     89.9995
outcell: Cell volume (Ang**3)        :   2151.0263
New_DM. Step:     7
Re-using DM from previous geometry...
Re-using DM without extrapolation (not allowed)
Density Matrix sparsity pattern changed.

InitMesh: MESH =    54 x   180 x   270 =     2624400
InitMesh: Mesh cutoff (required, used) =   300.000   303.839 Ry

siesta: iscf   Eharris(eV)      E_KS(eV)   FreeEng(eV)   dDmax  Ef(eV)
siesta:    1   -15913.4573   -15913.5325   -15913.5447  0.0143 -5.1130
siesta:    2   -15916.4441   -15913.1282   -15913.1316  0.1497 -5.4432
siesta:    3   -15913.4202   -15913.4946   -15913.5419  0.0109 -5.0310
siesta:    4   -15913.3940   -15913.4418   -15913.4453  0.0079 -4.9764
siesta:    5   -15913.3910   -15913.4345   -15913.4443  0.0076 -4.9720
siesta:    6   -15913.4000   -15913.3733   -15913.3835  0.0046 -4.9467
siesta:    7   -15913.3960   -15913.3736   -15913.3846  0.0040 -4.9481
siesta:    8   -15913.3899   -15913.3770   -15913.3884  0.0012 -4.9715
siesta:    9   -15913.3897   -15913.3795   -15913.3890  0.0009 -4.9715
siesta:   10   -15913.3895   -15913.3825   -15913.3921  0.0008 -4.9710
siesta:   11   -15913.3888   -15913.3841   -15913.3937  0.0005 -4.9689
siesta:   12   -15913.3885   -15913.3880   -15913.3981  0.0004 -4.9667
siesta:   13   -15913.3886   -15913.3893   -15913.3996  0.0003 -4.9669
siesta:   14   -15913.3885   -15913.3904   -15913.4006  0.0001 -4.9671
siesta:   15   -15913.3886   -15913.3902   -15913.4005  0.0001 -4.9673
siesta:   16   -15913.3885   -15913.3906   -15913.4009  0.0001 -4.9670

siesta: E_KS(eV) =           -15913.3903

siesta: Atomic forces (eV/Ang):
----------------------------------------
   Tot   -0.084558   -0.000503    0.031915
----------------------------------------
   Max    0.154469
   Res    0.072393    sqrt( Sum f_i^2 / 3N )
----------------------------------------
   Max    0.154469    constrained

Stress-tensor-Voigt (kbar):        3.45       -3.78        1.84        0.00        0.00        0.03
(Free)E + p*V (eV/cell)   -15914.0763
Target enthalpy (eV/cell)   -15913.4005

siesta: Stress tensor (static) (eV/Ang**3):
         0.002156    0.000003    0.000017
         0.000003   -0.002362    0.000001
         0.000017    0.000001    0.001149

siesta: Pressure (static):         -0.50333887  kBar

siesta: Stress tensor (total) (eV/Ang**3):
         0.002156    0.000003    0.000017
         0.000003   -0.002362    0.000001
         0.000017    0.000001    0.001149

siesta: Pressure (total):         -0.50333887  kBar

* Maximum dynamic memory allocated =   818 MB

siesta:                 ==============================
                            Begin CG move =      7
                        ==============================
k-point displ. along   1 input, could be:     0.00    0.50
k-point displ. along   2 input, could be:     0.00    0.50
 Kpoints in:            8 . Kpoints trimmed:            8

siesta: k-grid: Number of k-points =     8
siesta: k-grid: Cutoff (effective) =    12.500 Ang
siesta: k-grid: Supercell and displacements
siesta: k-grid:    6   0   0      0.000
siesta: k-grid:    0   2   0      0.000
siesta: k-grid:    0   0   1      0.000
Naive supercell factors:     6    2    2

superc: Internal auxiliary supercell:     6 x     2 x     2  =      24
superc: Number of atoms, orbitals, and projectors:   1728  22944  27648

outcell: Unit cell vectors (Ang):
        4.997481    0.000010    0.000000
        0.000033   17.191944    0.000000
        0.000000    0.000000   25.000000

outcell: Cell vector modules (Ang)   :    4.997481   17.191944   25.000000
outcell: Cell angles (23,13,12) (deg):     90.0000     90.0000     89.9998
outcell: Cell volume (Ang**3)        :   2147.9103
New_DM. Step:     8
Re-using DM from previous geometry...
Re-using DM without extrapolation (not allowed)
Density Matrix sparsity pattern changed.

InitMesh: MESH =    54 x   180 x   270 =     2624400
InitMesh: Mesh cutoff (required, used) =   300.000   302.968 Ry

siesta: iscf   Eharris(eV)      E_KS(eV)   FreeEng(eV)   dDmax  Ef(eV)
siesta:    1   -15913.4730   -15913.2741   -15913.2844  0.0147 -4.9954
siesta:    2   -15917.3649   -15913.0107   -15913.0178  0.1060 -4.7917
siesta:    3   -15913.4190   -15913.2677   -15913.3180  0.0130 -4.9367
siesta:    4   -15913.4211   -15913.2645   -15913.2755  0.0104 -4.9747
siesta:    5   -15913.4101   -15913.2716   -15913.2809  0.0104 -4.9612
siesta:    6   -15913.4097   -15913.3045   -15913.3156  0.0054 -4.9729
siesta:    7   -15913.4209   -15913.3259   -15913.3370  0.0040 -4.9967
siesta:    8   -15913.4075   -15913.3505   -15913.3590  0.0011 -4.9576
siesta:    9   -15913.4070   -15913.3553   -15913.3668  0.0009 -4.9584
siesta:   10   -15913.4069   -15913.3609   -15913.3724  0.0005 -4.9579
siesta:   11   -15913.4069   -15913.3779   -15913.3895  0.0005 -4.9600
siesta:   12   -15913.4068   -15913.3834   -15913.3949  0.0003 -4.9592
siesta:   13   -15913.4068   -15913.3954   -15913.4070  0.0002 -4.9595
siesta:   14   -15913.4068   -15913.4024   -15913.4140  0.0002 -4.9589
siesta:   15   -15913.4068   -15913.4035   -15913.4151  0.0001 -4.9591
siesta:   16   -15913.4068   -15913.4057   -15913.4173  0.0000 -4.9592

siesta: E_KS(eV) =           -15913.4056

siesta: Atomic forces (eV/Ang):
----------------------------------------
   Tot    0.064910   -0.000896    0.002935
----------------------------------------
   Max    0.066564
   Res    0.031621    sqrt( Sum f_i^2 / 3N )
----------------------------------------
   Max    0.066564    constrained

Stress-tensor-Voigt (kbar):        0.76       -1.03        2.98        0.00       -0.00       -0.03
(Free)E + p*V (eV/cell)   -15914.6284
Target enthalpy (eV/cell)   -15913.4172

siesta: Stress tensor (static) (eV/Ang**3):
         0.000474    0.000001   -0.000020
         0.000001   -0.000641   -0.000000
        -0.000020   -0.000000    0.001859

siesta: Pressure (static):         -0.90347244  kBar

siesta: Stress tensor (total) (eV/Ang**3):
         0.000474    0.000001   -0.000020
         0.000001   -0.000641   -0.000000
        -0.000020   -0.000000    0.001859

siesta: Pressure (total):         -0.90347244  kBar

cgvc: Finished line minimization    3.  Mean atomic displacement =    0.0089

* Maximum dynamic memory allocated =   818 MB

siesta:                 ==============================
                            Begin CG move =      8
                        ==============================
k-point displ. along   1 input, could be:     0.00    0.50
k-point displ. along   2 input, could be:     0.00    0.50
 Kpoints in:            8 . Kpoints trimmed:            8

siesta: k-grid: Number of k-points =     8
siesta: k-grid: Cutoff (effective) =    12.500 Ang
siesta: k-grid: Supercell and displacements
siesta: k-grid:    6   0   0      0.000
siesta: k-grid:    0   2   0      0.000
siesta: k-grid:    0   0   1      0.000
Naive supercell factors:     6    2    2

superc: Internal auxiliary supercell:     6 x     2 x     2  =      24
superc: Number of atoms, orbitals, and projectors:   1728  22944  27648

outcell: Unit cell vectors (Ang):
        4.994278   -0.000002    0.000000
       -0.000008   17.230323    0.000000
        0.000000    0.000000   25.000000

outcell: Cell vector modules (Ang)   :    4.994278   17.230323   25.000000
outcell: Cell angles (23,13,12) (deg):     90.0000     90.0000     90.0001
outcell: Cell volume (Ang**3)        :   2151.3257
New_DM. Step:     9
Re-using DM from previous geometry...
Re-using DM without extrapolation (not allowed)
Density Matrix sparsity pattern changed.

InitMesh: MESH =    54 x   180 x   270 =     2624400
InitMesh: Mesh cutoff (required, used) =   300.000   301.620 Ry

siesta: iscf   Eharris(eV)      E_KS(eV)   FreeEng(eV)   dDmax  Ef(eV)
siesta:    1   -15913.4409   -15913.4536   -15913.4652  0.0105 -5.0805
siesta:    2   -15916.2443   -15913.1442   -15913.1555  0.1491 -5.4396
siesta:    3   -15913.4069   -15913.4267   -15913.4565  0.0061 -5.0029
siesta:    4   -15913.4020   -15913.3870   -15913.3991  0.0075 -4.9376
siesta:    5   -15913.3969   -15913.3879   -15913.4011  0.0058 -4.9380
siesta:    6   -15913.4014   -15913.3603   -15913.3740  0.0042 -4.9236
siesta:    7   -15913.4002   -15913.3551   -15913.3674  0.0039 -4.9249
siesta:    8   -15913.3920   -15913.3653   -15913.3779  0.0015 -4.9430
siesta:    9   -15913.3912   -15913.3744   -15913.3887  0.0008 -4.9516
siesta:   10   -15913.3911   -15913.3742   -15913.3889  0.0007 -4.9486
siesta:   11   -15913.3911   -15913.3829   -15913.3975  0.0006 -4.9500
siesta:   12   -15913.3911   -15913.3843   -15913.3990  0.0004 -4.9470
siesta:   13   -15913.3911   -15913.3885   -15913.4031  0.0002 -4.9471
siesta:   14   -15913.3911   -15913.3898   -15913.4044  0.0002 -4.9470
siesta:   15   -15913.3911   -15913.3929   -15913.4075  0.0001 -4.9467

siesta: E_KS(eV) =           -15913.3929

siesta: Atomic forces (eV/Ang):
----------------------------------------
   Tot    0.053049   -0.000509    0.037274
----------------------------------------
   Max    0.279435
   Res    0.108054    sqrt( Sum f_i^2 / 3N )
----------------------------------------
   Max    0.279435    constrained

Stress-tensor-Voigt (kbar):       -1.94        2.29        1.89       -0.00        0.00        0.00
(Free)E + p*V (eV/cell)   -15914.4110
Target enthalpy (eV/cell)   -15913.4075

siesta: Stress tensor (static) (eV/Ang**3):
        -0.001211   -0.000001    0.000000
        -0.000001    0.001431    0.000000
         0.000000    0.000000    0.001180

siesta: Pressure (static):         -0.74734850  kBar

siesta: Stress tensor (total) (eV/Ang**3):
        -0.001211   -0.000001    0.000000
        -0.000001    0.001431    0.000000
         0.000000    0.000000    0.001180

siesta: Pressure (total):         -0.74734850  kBar

* Maximum dynamic memory allocated =   818 MB

siesta:                 ==============================
                            Begin CG move =      9
                        ==============================
k-point displ. along   1 input, could be:     0.00    0.50
k-point displ. along   2 input, could be:     0.00    0.50
 Kpoints in:            8 . Kpoints trimmed:            8

siesta: k-grid: Number of k-points =     8
siesta: k-grid: Cutoff (effective) =    12.500 Ang
siesta: k-grid: Supercell and displacements
siesta: k-grid:    6   0   0      0.000
siesta: k-grid:    0   2   0      0.000
siesta: k-grid:    0   0   1      0.000
Naive supercell factors:     6    2    2

superc: Internal auxiliary supercell:     6 x     2 x     2  =      24
superc: Number of atoms, orbitals, and projectors:   1728  22944  27648

outcell: Unit cell vectors (Ang):
        4.996476    0.000006    0.000000
        0.000020   17.203988    0.000000
        0.000000    0.000000   25.000000

outcell: Cell vector modules (Ang)   :    4.996476   17.203988   25.000000
outcell: Cell angles (23,13,12) (deg):     90.0000     90.0000     89.9999
outcell: Cell volume (Ang**3)        :   2148.9828
New_DM. Step:    10
Re-using DM from previous geometry...
Re-using DM without extrapolation (not allowed)
Density Matrix sparsity pattern changed.

InitMesh: MESH =    54 x   180 x   270 =     2624400
InitMesh: Mesh cutoff (required, used) =   300.000   302.544 Ry

siesta: iscf   Eharris(eV)      E_KS(eV)   FreeEng(eV)   dDmax  Ef(eV)
siesta:    1   -15913.4435   -15913.3494   -15913.3639  0.0147 -4.9543
siesta:    2   -15916.1641   -15913.1132   -15913.1211  0.0865 -4.7959
siesta:    3   -15913.4093   -15913.3429   -15913.3664  0.0128 -4.9495
siesta:    4   -15913.4086   -15913.3447   -15913.3580  0.0120 -4.9509
siesta:    5   -15913.4135   -15913.3633   -15913.3766  0.0033 -4.9773
siesta:    6   -15913.4101   -15913.3671   -15913.3801  0.0026 -4.9660
siesta:    7   -15913.4080   -15913.3757   -15913.3891  0.0008 -4.9520
siesta:    8   -15913.4078   -15913.3796   -15913.3930  0.0006 -4.9535
siesta:    9   -15913.4078   -15913.3830   -15913.3963  0.0004 -4.9515
siesta:   10   -15913.4077   -15913.3896   -15913.4029  0.0004 -4.9534
siesta:   11   -15913.4077   -15913.3975   -15913.4108  0.0003 -4.9532
siesta:   12   -15913.4077   -15913.4008   -15913.4141  0.0001 -4.9522
siesta:   13   -15913.4077   -15913.4048   -15913.4181  0.0001 -4.9524
siesta:   14   -15913.4077   -15913.4070   -15913.4203  0.0001 -4.9525

siesta: E_KS(eV) =           -15913.4073

siesta: Atomic forces (eV/Ang):
----------------------------------------
   Tot    0.058846    0.000834    0.006572
----------------------------------------
   Max    0.059268
   Res    0.031423    sqrt( Sum f_i^2 / 3N )
----------------------------------------
   Max    0.057015    constrained

Stress-tensor-Voigt (kbar):       -0.24        0.14        2.64        0.00        0.00       -0.02
(Free)E + p*V (eV/cell)   -15914.5553
Target enthalpy (eV/cell)   -15913.4206

siesta: Stress tensor (static) (eV/Ang**3):
        -0.000151    0.000001   -0.000010
         0.000001    0.000088    0.000002
        -0.000010    0.000002    0.001647

siesta: Pressure (static):         -0.84595193  kBar

siesta: Stress tensor (total) (eV/Ang**3):
        -0.000151    0.000001   -0.000010
         0.000001    0.000088    0.000002
        -0.000010    0.000002    0.001647

siesta: Pressure (total):         -0.84595193  kBar

cgvc: Finished line minimization    4.  Mean atomic displacement =    0.0028

* Maximum dynamic memory allocated =   818 MB

siesta:                 ==============================
                            Begin CG move =     10
                        ==============================
k-point displ. along   1 input, could be:     0.00    0.50
k-point displ. along   2 input, could be:     0.00    0.50
 Kpoints in:            8 . Kpoints trimmed:            8

siesta: k-grid: Number of k-points =     8
siesta: k-grid: Cutoff (effective) =    12.500 Ang
siesta: k-grid: Supercell and displacements
siesta: k-grid:    6   0   0      0.000
siesta: k-grid:    0   2   0      0.000
siesta: k-grid:    0   0   1      0.000
Naive supercell factors:     6    2    2

superc: Internal auxiliary supercell:     6 x     2 x     2  =      24
superc: Number of atoms, orbitals, and projectors:   1728  22944  27648

outcell: Unit cell vectors (Ang):
        4.996844   -0.000003    0.000000
       -0.000009   17.211354    0.000000
        0.000000    0.000000   25.000000

outcell: Cell vector modules (Ang)   :    4.996844   17.211354   25.000000
outcell: Cell angles (23,13,12) (deg):     90.0000     90.0000     90.0001
outcell: Cell volume (Ang**3)        :   2150.0612
New_DM. Step:    11
Re-using DM from previous geometry...
Re-using DM without extrapolation (not allowed)
Density Matrix sparsity pattern changed.

InitMesh: MESH =    54 x   180 x   270 =     2624400
InitMesh: Mesh cutoff (required, used) =   300.000   302.285 Ry

siesta: iscf   Eharris(eV)      E_KS(eV)   FreeEng(eV)   dDmax  Ef(eV)
siesta:    1   -15913.4174   -15913.3048   -15913.3181  0.0035 -4.9729
siesta:    2   -15913.9971   -15913.3410   -15913.3532  0.0472 -5.3198
siesta:    3   -15913.4129   -15913.3184   -15913.3323  0.0023 -4.9430
siesta:    4   -15913.4106   -15913.3180   -15913.3309  0.0015 -4.9528
siesta:    5   -15913.4106   -15913.3252   -15913.3386  0.0013 -4.9512
siesta:    6   -15913.4107   -15913.3860   -15913.3993  0.0011 -4.9495
siesta:    7   -15913.4106   -15913.4051   -15913.4183  0.0004 -4.9511
siesta:    8   -15913.4105   -15913.4090   -15913.4223  0.0002 -4.9521
siesta:    9   -15913.4105   -15913.4099   -15913.4232  0.0001 -4.9520

siesta: E_KS(eV) =           -15913.4104

siesta: Atomic forces (eV/Ang):
----------------------------------------
   Tot    0.043609    0.000244    0.021017
----------------------------------------
   Max    0.060954
   Res    0.026143    sqrt( Sum f_i^2 / 3N )
----------------------------------------
   Max    0.049945    constrained

Stress-tensor-Voigt (kbar):        0.00        0.72        2.23       -0.00       -0.00        0.00
(Free)E + p*V (eV/cell)   -15914.7439
Target enthalpy (eV/cell)   -15913.4238

siesta: Stress tensor (static) (eV/Ang**3):
         0.000002   -0.000001    0.000002
        -0.000001    0.000451   -0.000002
         0.000002   -0.000002    0.001389

siesta: Pressure (static):         -0.98373871  kBar

siesta: Stress tensor (total) (eV/Ang**3):
         0.000002   -0.000001    0.000002
        -0.000001    0.000451   -0.000002
         0.000002   -0.000002    0.001389

siesta: Pressure (total):         -0.98373871  kBar

* Maximum dynamic memory allocated =   820 MB

siesta:                 ==============================
                            Begin CG move =     11
                        ==============================
k-point displ. along   1 input, could be:     0.00    0.50
k-point displ. along   2 input, could be:     0.00    0.50
 Kpoints in:            8 . Kpoints trimmed:            8

siesta: k-grid: Number of k-points =     8
siesta: k-grid: Cutoff (effective) =    12.500 Ang
siesta: k-grid: Supercell and displacements
siesta: k-grid:    6   0   0      0.000
siesta: k-grid:    0   2   0      0.000
siesta: k-grid:    0   0   1      0.000
Naive supercell factors:     6    2    2

superc: Internal auxiliary supercell:     6 x     2 x     2  =      24
superc: Number of atoms, orbitals, and projectors:   1728  22944  27648

outcell: Unit cell vectors (Ang):
        4.997433   -0.000016    0.000000
       -0.000055   17.223140    0.000000
        0.000000    0.000000   25.000000

outcell: Cell vector modules (Ang)   :    4.997433   17.223140   25.000000
outcell: Cell angles (23,13,12) (deg):     90.0000     90.0000     90.0004
outcell: Cell volume (Ang**3)        :   2151.7870
New_DM. Step:    12
Re-using DM from previous geometry...
Re-using DM without extrapolation (not allowed)
Density Matrix sparsity pattern changed.

InitMesh: MESH =    54 x   180 x   270 =     2624400
InitMesh: Mesh cutoff (required, used) =   300.000   301.871 Ry

siesta: iscf   Eharris(eV)      E_KS(eV)   FreeEng(eV)   dDmax  Ef(eV)
siesta:    1   -15913.4286   -15913.2452   -15913.2586  0.0056 -4.9912
siesta:    2   -15914.6611   -15913.2820   -15913.2927  0.0820 -5.3261
siesta:    3   -15913.4127   -15913.2592   -15913.2760  0.0027 -4.9542
siesta:    4   -15913.4126   -15913.2665   -15913.2799  0.0023 -4.9530
siesta:    5   -15913.4126   -15913.3142   -15913.3275  0.0019 -4.9483
siesta:    6   -15913.4126   -15913.3893   -15913.4026  0.0009 -4.9491
siesta:    7   -15913.4125   -15913.4124   -15913.4257  0.0002 -4.9515
siesta:    8   -15913.4125   -15913.4137   -15913.4270  0.0001 -4.9504
siesta:    9   -15913.4125   -15913.4139   -15913.4273  0.0001 -4.9510

siesta: E_KS(eV) =           -15913.4139

siesta: Atomic forces (eV/Ang):
----------------------------------------
   Tot    0.052732   -0.001086    0.029838
----------------------------------------
   Max    0.063607
   Res    0.021108    sqrt( Sum f_i^2 / 3N )
----------------------------------------
   Max    0.052909    constrained

Stress-tensor-Voigt (kbar):        0.36        1.61        1.49       -0.00        0.00        0.00
(Free)E + p*V (eV/cell)   -15914.9783
Target enthalpy (eV/cell)   -15913.4272

siesta: Stress tensor (static) (eV/Ang**3):
         0.000227   -0.000003    0.000002
        -0.000003    0.001008    0.000000
         0.000002    0.000000    0.000928

siesta: Pressure (static):         -1.15492059  kBar

siesta: Stress tensor (total) (eV/Ang**3):
         0.000227   -0.000003    0.000002
        -0.000003    0.001008    0.000000
         0.000002    0.000000    0.000928

siesta: Pressure (total):         -1.15492059  kBar

* Maximum dynamic memory allocated =   820 MB

siesta:                 ==============================
                            Begin CG move =     12
                        ==============================
k-point displ. along   1 input, could be:     0.00    0.50
k-point displ. along   2 input, could be:     0.00    0.50
 Kpoints in:            8 . Kpoints trimmed:            8

siesta: k-grid: Number of k-points =     8
siesta: k-grid: Cutoff (effective) =    12.500 Ang
siesta: k-grid: Supercell and displacements
siesta: k-grid:    6   0   0      0.000
siesta: k-grid:    0   2   0      0.000
siesta: k-grid:    0   0   1      0.000
Naive supercell factors:     6    2    2

superc: Internal auxiliary supercell:     6 x     2 x     2  =      24
superc: Number of atoms, orbitals, and projectors:   1728  22944  27648

outcell: Unit cell vectors (Ang):
        4.998374   -0.000037    0.000000
       -0.000128   17.241996    0.000000
        0.000000    0.000000   25.000000

outcell: Cell vector modules (Ang)   :    4.998374   17.241996   25.000000
outcell: Cell angles (23,13,12) (deg):     90.0000     90.0000     90.0009
outcell: Cell volume (Ang**3)        :   2154.5488
New_DM. Step:    13
Re-using DM from previous geometry...
Re-using DM without extrapolation (not allowed)
Density Matrix sparsity pattern changed.

InitMesh: MESH =    54 x   180 x   270 =     2624400
InitMesh: Mesh cutoff (required, used) =   300.000   301.212 Ry

siesta: iscf   Eharris(eV)      E_KS(eV)   FreeEng(eV)   dDmax  Ef(eV)
siesta:    1   -15913.4421   -15913.1467   -15913.1600  0.0090 -5.0280
siesta:    2   -15915.6220   -15913.2021   -15913.2120  0.1114 -5.4376
siesta:    3   -15913.4129   -15913.1681   -15913.1961  0.0047 -4.9685
siesta:    4   -15913.4105   -15913.1898   -15913.2025  0.0035 -4.9481
siesta:    5   -15913.4096   -15913.1928   -15913.2060  0.0032 -4.9562
siesta:    6   -15913.4100   -15913.2797   -15913.2931  0.0029 -4.9391
siesta:    7   -15913.4116   -15913.3527   -15913.3658  0.0021 -4.9354
siesta:    8   -15913.4098   -15913.3946   -15913.4076  0.0011 -4.9427
siesta:    9   -15913.4092   -15913.4070   -15913.4202  0.0005 -4.9463
siesta:   10   -15913.4090   -15913.4119   -15913.4251  0.0002 -4.9488
siesta:   11   -15913.4090   -15913.4119   -15913.4253  0.0002 -4.9492
siesta:   12   -15913.4090   -15913.4115   -15913.4249  0.0002 -4.9493
siesta:   13   -15913.4090   -15913.4105   -15913.4238  0.0001 -4.9494

siesta: E_KS(eV) =           -15913.4104

siesta: Atomic forces (eV/Ang):
----------------------------------------
   Tot    0.051177   -0.002165    0.000134
----------------------------------------
   Max    0.106943
   Res    0.027333    sqrt( Sum f_i^2 / 3N )
----------------------------------------
   Max    0.106943    constrained

Stress-tensor-Voigt (kbar):        0.89        3.07        0.47       -0.01        0.00       -0.02
(Free)E + p*V (eV/cell)   -15915.4115
Target enthalpy (eV/cell)   -15913.4238

siesta: Stress tensor (static) (eV/Ang**3):
         0.000559   -0.000007   -0.000010
        -0.000007    0.001915    0.000001
        -0.000010    0.000000    0.000294

siesta: Pressure (static):         -1.47814923  kBar

siesta: Stress tensor (total) (eV/Ang**3):
         0.000559   -0.000007   -0.000010
        -0.000007    0.001915    0.000001
        -0.000010    0.000000    0.000294

siesta: Pressure (total):         -1.47814923  kBar

* Maximum dynamic memory allocated =   821 MB

siesta:                 ==============================
                            Begin CG move =     13
                        ==============================
k-point displ. along   1 input, could be:     0.00    0.50
k-point displ. along   2 input, could be:     0.00    0.50
 Kpoints in:            8 . Kpoints trimmed:            8

siesta: k-grid: Number of k-points =     8
siesta: k-grid: Cutoff (effective) =    12.500 Ang
siesta: k-grid: Supercell and displacements
siesta: k-grid:    6   0   0      0.000
[...]
Re-using DM from previous geometry...
Re-using DM without extrapolation (not allowed)
Density Matrix sparsity pattern changed.

InitMesh: MESH =    54 x   180 x   270 =     2624400
InitMesh: Mesh cutoff (required, used) =   300.000   302.347 Ry

siesta: iscf   Eharris(eV)      E_KS(eV)   FreeEng(eV)   dDmax  Ef(eV)
siesta:    1   -15913.4198   -15913.4711   -15913.4837  0.0016 -4.9461
siesta:    2   -15913.4357   -15913.4186   -15913.4315  0.0053 -4.9917
siesta:    3   -15913.4197   -15913.4634   -15913.4738  0.0014 -4.9494
siesta:    4   -15913.4197   -15913.4573   -15913.4704  0.0012 -4.9480
siesta:    5   -15913.4197   -15913.4301   -15913.4431  0.0003 -4.9513
siesta:    6   -15913.4197   -15913.4215   -15913.4346  0.0002 -4.9486
siesta:    7   -15913.4196   -15913.4200   -15913.4331  0.0001 -4.9494

siesta: E_KS(eV) =           -15913.4198

siesta: Atomic forces (eV/Ang):
----------------------------------------
   Tot    0.064581    0.003039   -0.013861
----------------------------------------
   Max    0.056585
   Res    0.011257    sqrt( Sum f_i^2 / 3N )
----------------------------------------
   Max    0.036828    constrained

Stress-tensor-Voigt (kbar):       -0.11       -0.14        0.09       -0.03       -0.00        0.04
(Free)E + p*V (eV/cell)   -15913.3658
Target enthalpy (eV/cell)   -15913.4328

siesta: Stress tensor (static) (eV/Ang**3):
        -0.000066   -0.000016    0.000028
        -0.000016   -0.000085   -0.000000
         0.000028   -0.000000    0.000058

siesta: Pressure (static):          0.04994580  kBar

siesta: Stress tensor (total) (eV/Ang**3):
        -0.000066   -0.000016    0.000028
        -0.000016   -0.000085   -0.000000
         0.000028   -0.000000    0.000058

siesta: Pressure (total):          0.04994580  kBar

* Maximum dynamic memory allocated =   834 MB

siesta:                 ==============================
                            Begin CG move =     35
                        ==============================
k-point displ. along   1 input, could be:     0.00    0.50
k-point displ. along   2 input, could be:     0.00    0.50
 Kpoints in:            8 . Kpoints trimmed:            8

siesta: k-grid: Number of k-points =     8
siesta: k-grid: Cutoff (effective) =    12.500 Ang
siesta: k-grid: Supercell and displacements
siesta: k-grid:    6   0   0      0.000
siesta: k-grid:    0   2   0      0.000
siesta: k-grid:    0   0   1      0.000
Naive supercell factors:     6    2    2

superc: Internal auxiliary supercell:     6 x     2 x     2  =      24
superc: Number of atoms, orbitals, and projectors:   1728  22944  27648

outcell: Unit cell vectors (Ang):
        4.996785   -0.000001    0.000000
       -0.000003   17.210679    0.000000
        0.000000    0.000000   25.000000

outcell: Cell vector modules (Ang)   :    4.996785   17.210679   25.000000
outcell: Cell angles (23,13,12) (deg):     90.0000     90.0000     90.0000
outcell: Cell volume (Ang**3)        :   2149.9517
New_DM. Step:    36
Re-using DM from previous geometry...
Re-using DM without extrapolation (not allowed)
Density Matrix sparsity pattern changed.

InitMesh: MESH =    54 x   180 x   270 =     2624400
InitMesh: Mesh cutoff (required, used) =   300.000   302.309 Ry

siesta: iscf   Eharris(eV)      E_KS(eV)   FreeEng(eV)   dDmax  Ef(eV)
siesta:    1   -15913.4201   -15913.3871   -15913.4002  0.0004 -4.9514
siesta:    2   -15913.4262   -15913.4196   -15913.4324  0.0033 -4.9365
siesta:    3   -15913.4200   -15913.3917   -15913.4039  0.0003 -4.9499
siesta:    4   -15913.4200   -15913.3973   -15913.4100  0.0002 -4.9496
siesta:    5   -15913.4200   -15913.4131   -15913.4258  0.0002 -4.9491
siesta:    6   -15913.4200   -15913.4192   -15913.4320  0.0001 -4.9497
siesta:    7   -15913.4200   -15913.4198   -15913.4326  0.0000 -4.9498

siesta: E_KS(eV) =           -15913.4199

siesta: Atomic forces (eV/Ang):
----------------------------------------
   Tot    0.056752    0.001837   -0.021086
----------------------------------------
   Max    0.061177
   Res    0.004971    sqrt( Sum f_i^2 / 3N )
----------------------------------------
   Max    0.007403    constrained

Stress-tensor-Voigt (kbar):       -0.01       -0.04        0.13       -0.00       -0.00        0.03
(Free)E + p*V (eV/cell)   -15913.4694
Target enthalpy (eV/cell)   -15913.4327

siesta: Stress tensor (static) (eV/Ang**3):
        -0.000006   -0.000002    0.000020
        -0.000002   -0.000025   -0.000003
         0.000020   -0.000003    0.000082

siesta: Pressure (static):         -0.02736887  kBar

siesta: Stress tensor (total) (eV/Ang**3):
        -0.000006   -0.000002    0.000020
        -0.000002   -0.000025   -0.000003
         0.000020   -0.000003    0.000082

siesta: Pressure (total):         -0.02736887  kBar

* Maximum dynamic memory allocated =   834 MB

outcoor: Relaxed atomic coordinates (fractional):           
    0.32732589    0.05003802    0.09482000   1       1  Ti
    0.32718906    0.24999059    0.09428753   1       2  Ti
    0.32727656    0.44996458    0.09436942   1       3  Ti
    0.32750206    0.64997502    0.09447629   1       4  Ti
    0.32751265    0.85003263    0.09445762   1       5  Ti
    0.82697543    0.14995327   -0.01409998   1       6  Ti
    0.82697439    0.35000217   -0.01415946   1       7  Ti
    0.82716154    0.55001136   -0.01407204   1       8  Ti
    0.82721143    0.75000387   -0.01403077   1       9  Ti
    0.82718005    0.95001925   -0.01402290   1      10  Ti
    0.61840021    0.04994807    0.92483173   2      11  S
    0.61820211    0.24998025    0.92481375   2      12  S
    0.61838208    0.45005640    0.92480374   2      13  S
    0.61848304    0.65003339    0.92487613   2      14  S
    0.61847672    0.84999399    0.92490088   2      15  S
    0.53626161    0.15019344    0.15565123   2      16  S
    0.53620489    0.34995363    0.15550519   2      17  S
    0.53648745    0.54988850    0.15557666   2      18  S
    0.53743344    0.75000023    0.15544399   2      19  S
    0.53655400    0.94999669    0.15572184   2      20  S
    0.82709871    0.05002809    0.05794362   2      21  S
    0.82696423    0.24999725    0.05776558   2      22  S
    0.82706052    0.44996767    0.05781132   2      23  S
    0.82733241    0.64997885    0.05789529   2      24  S
    0.82733987    0.85002358    0.05790147   2      25  S
    0.32707073    0.14983940    0.02265997   2      26  S
    0.32702177    0.35001725    0.02252257   2      27  S
    0.32726442    0.55002990    0.02262756   2      28  S
    0.32727923    0.74999997    0.02268913   2      29  S
    0.32729205    0.95010611    0.02275284   2      30  S
    0.03637135    0.04993789    0.92491894   2      31  S
    0.03615865    0.24996512    0.92482523   2      32  S
    0.03634009    0.45004923    0.92487553   2      33  S
    0.03646031    0.65003729    0.92494489   2      34  S
    0.03645076    0.84998250    0.92496633   2      35  S
    0.11791086    0.15018877    0.15558504   2      36  S
    0.11797410    0.34992699    0.15545318   2      37  S
    0.11825303    0.54987457    0.15556796   2      38  S
    0.11922332    0.74999774    0.15581253   2      39  S
    0.11820669    0.94999529    0.15569511   2      40  S
    0.37042283    0.20831592    0.30902464   3      41  C
    0.37043009    0.45832571    0.30833639   3      42  C
    0.37042349    0.70831740    0.30698661   3      43  C
    0.37042298    0.95831194    0.30785658   3      44  C
    0.87042162    0.20831763    0.30898613   3      45  C
    0.87042570    0.45832466    0.30828645   3      46  C
    0.87042058    0.70831844    0.30693191   3      47  C
    0.87042145    0.95831454    0.30780924   3      48  C
    0.37042661    0.04167322    0.30833748   3      49  C
    0.37042385    0.29168333    0.30902413   3      50  C
    0.37042541    0.54168714    0.30785506   3      51  C
    0.37042279    0.79168136    0.30698690   3      52  C
    0.87042391    0.04167446    0.30828743   3      53  C
    0.87042215    0.29168217    0.30898551   3      54  C
    0.87042267    0.54168456    0.30780787   3      55  C
    0.87041977    0.79168046    0.30693205   3      56  C
    0.12042415    0.08331260    0.30856219   3      57  C
    0.12042119    0.33332110    0.30892756   3      58  C
    0.12042519    0.58331876    0.30757554   3      59  C
    0.12042430    0.83331533    0.30710606   3      60  C
    0.62042946    0.08331290    0.30854973   3      61  C
    0.62043336    0.33332049    0.30891459   3      62  C
    0.62043020    0.58331833    0.30756243   3      63  C
    0.62042297    0.83331581    0.30708996   3      64  C
    0.12042085    0.16667921    0.30892848   3      65  C
    0.12042614    0.41668663    0.30856116   3      66  C
    0.12042566    0.66668398    0.30710544   3      67  C
    0.12042372    0.91667980    0.30757702   3      68  C
    0.62043234    0.16667914    0.30891561   3      69  C
    0.62043264    0.41668610    0.30854883   3      70  C
    0.62042326    0.66668352    0.30708941   3      71  C
    0.62042934    0.91668056    0.30756379   3      72  C

outcell: Unit cell vectors (Ang):
        4.996785   -0.000001    0.000000
       -0.000003   17.210679    0.000000
        0.000000    0.000000   25.000000

outcell: Cell vector modules (Ang)   :    4.996785   17.210679   25.000000
outcell: Cell angles (23,13,12) (deg):     90.0000     90.0000     90.0000
outcell: Cell volume (Ang**3)        :   2149.9517

coxmol: Writing XMOL coordinates into file TiS3.xyz                                                        

siesta: Program's energy decomposition (eV):
siesta: Ebs     =     -4220.265374
siesta: Eions   =     23488.662927
siesta: Ena     =      5297.256354
siesta: Ekin    =      7921.455293
siesta: Enl     =       -67.565730
siesta: DEna    =       -91.676694
siesta: DUscf   =        17.041482
siesta: DUext   =         0.000000
siesta: Exc     =     -5501.267710
siesta: eta*DQ  =         0.000000
siesta: Emadel  =         0.000000
siesta: Emeta   =         0.000000
siesta: Emolmec =         0.000000
siesta: Ekinion =         0.000000
siesta: Eharris =    -15913.420023
siesta: Etot    =    -15913.419932
siesta: FreeEng =    -15913.432702

siesta: Final energy (eV):
siesta:  Band Struct. =   -4220.265374
siesta:       Kinetic =    7921.455293
siesta:       Hartree =   66029.409253
siesta:    Ext. field =       0.000000
siesta:   Exch.-corr. =   -5501.267710
siesta:  Ion-electron = -139234.706234
siesta:       Ion-ion =   54871.689466
siesta:       Ekinion =       0.000000
siesta:         Total =  -15913.419932

siesta: Atomic forces (eV/Ang):
siesta:      1    0.001885   -0.000490   -0.061177
siesta:      2    0.000629    0.000473    0.005245
siesta:      3    0.002230   -0.002150    0.005897
siesta:      4    0.002437   -0.001001    0.004798
siesta:      5    0.002756    0.002232    0.006470
siesta:      6    0.002543    0.000361   -0.003748
siesta:      7    0.000605   -0.000287   -0.003511
siesta:      8    0.001234    0.000965   -0.007403
siesta:      9    0.001288    0.000835   -0.006415
siesta:     10    0.000975   -0.000110   -0.005494
siesta:     11   -0.000417    0.000599    0.004423
siesta:     12    0.000937   -0.001520    0.003127
siesta:     13   -0.000142   -0.001002    0.001607
siesta:     14    0.000049    0.000020   -0.000439
siesta:     15    0.000108    0.001765    0.001675
siesta:     16    0.001925    0.003071    0.005735
siesta:     17    0.001676    0.001932   -0.000302
siesta:     18    0.000423    0.000905   -0.000906
siesta:     19    0.001887   -0.001095   -0.001447
siesta:     20    0.000654   -0.002612    0.005409
siesta:     21    0.000871   -0.000390    0.004842
siesta:     22    0.000820    0.000429    0.002888
siesta:     23    0.001268    0.000053   -0.000243
siesta:     24    0.000597   -0.000004   -0.001971
siesta:     25    0.001263   -0.000443    0.000499
siesta:     26    0.002802   -0.001194    0.005897
siesta:     27    0.001525   -0.000625    0.000683
siesta:     28    0.001817   -0.000320    0.000115
siesta:     29    0.002431    0.000687    0.000862
siesta:     30    0.002834    0.002037    0.005382
siesta:     31    0.003183   -0.000414    0.006065
siesta:     32    0.004241   -0.002254    0.005617
siesta:     33    0.003078    0.000161    0.001861
siesta:     34    0.002806   -0.000012    0.003147
siesta:     35    0.003181    0.001965    0.005505
siesta:     36    0.002243    0.002116    0.002087
siesta:     37    0.001266    0.000976   -0.001799
siesta:     38   -0.000844   -0.000999   -0.001850
siesta:     39    0.001200   -0.001185   -0.003038
siesta:     40    0.000942   -0.001772    0.001570
siesta:     41   -0.000291    0.005459   -0.002655
siesta:     42   -0.000869    0.004945   -0.001713
siesta:     43   -0.000817    0.004382    0.002696
siesta:     44    0.000187    0.003327    0.000076
siesta:     45   -0.000423    0.004786   -0.002550
siesta:     46   -0.000554    0.005547   -0.001751
siesta:     47   -0.000850    0.005224    0.002700
siesta:     48    0.000137    0.003151   -0.000057
siesta:     49   -0.000602   -0.004800   -0.001602
siesta:     50   -0.000512   -0.005019   -0.002741
siesta:     51    0.000092   -0.003603   -0.000099
siesta:     52   -0.000673   -0.004041    0.002749
siesta:     53   -0.000607   -0.005479   -0.001594
siesta:     54   -0.000356   -0.004797   -0.002607
siesta:     55    0.000172   -0.003383   -0.000171
siesta:     56   -0.000853   -0.005260    0.002756
siesta:     57    0.000686    0.005165   -0.002128
siesta:     58   -0.000516    0.003916   -0.002550
siesta:     59   -0.000119    0.003320    0.000548
siesta:     60    0.000535    0.003524    0.002477
siesta:     61    0.000293    0.005159   -0.002143
siesta:     62   -0.000446    0.004783   -0.002526
siesta:     63   -0.000034    0.002857    0.000611
siesta:     64    0.000996    0.003463    0.002507
siesta:     65   -0.000893   -0.004751   -0.002343
siesta:     66    0.000769   -0.004553   -0.002240
siesta:     67    0.000401   -0.004169    0.002408
siesta:     68   -0.000095   -0.002687    0.000683
siesta:     69   -0.000319   -0.005246   -0.002404
siesta:     70    0.000026   -0.004766   -0.002330
siesta:     71    0.001230   -0.003911    0.002418
siesta:     72   -0.000148   -0.002406    0.000831
siesta: ----------------------------------------
siesta:    Tot    0.056752    0.001837   -0.021086

siesta: Stress tensor (static) (eV/Ang**3):
siesta:    -0.000006   -0.000002    0.000020
siesta:    -0.000002   -0.000025   -0.000003
siesta:     0.000020   -0.000003    0.000082

siesta: Constrained stress tensor (static) (eV/Ang**3):
siesta:    -0.000006   -0.000002    0.000000
siesta:    -0.000002   -0.000025    0.000000
siesta:     0.000000    0.000000    0.000000

siesta: Cell volume =       2149.951704 Ang**3

siesta: Pressure (static):
siesta:                Solid            Molecule  Units
siesta:          -0.00000019         -0.00000149  Ry/Bohr**3
siesta:          -0.00001708         -0.00013706  eV/Ang**3
siesta:          -0.02736887         -0.21959688  kBar
(Free)E+ p_basis*V_orbitals  =      -15867.570531
(Free)Eharris+ p_basis*V_orbitals  =      -15867.570753

siesta: Total spin polarization (Qup-Qdown) =   -0.000000

* Maximum dynamic memory allocated : Node    0 =   834 MB
* Maximum dynamic memory allocated : Node    1 =   456 MB
* Maximum dynamic memory allocated : Node    2 =   821 MB
* Maximum dynamic memory allocated : Node    3 =   444 MB

* Maximum memory occured during init_pulay_arrrays            

timer: CPU execution times:
timer:  Routine       Calls   Time/call    Tot.time        %
timer:  siesta            1  154820.676  154820.676   100.00
timer:  Setup             1       0.867       0.867     0.00
timer:  bands             1       0.001       0.001     0.00
timer:  writewave         1       0.002       0.002     0.00
timer:  KSV_init          1       0.000       0.000     0.00
timer:  IterMD           36    4298.908  154760.676    99.96
timer:  hsparse          36       0.977      35.179     0.02
timer:  overlap          36       0.477      17.179     0.01
timer:  IterSCF         438     335.932  147138.132    95.04
timer:  kinefsm          72       0.455      32.777     0.02
timer:  nlefsm           72      11.100     799.209     0.52
timer:  DHSCF           475      96.201   45695.506    29.52
timer:  DHSCF1           36       0.996      35.841     0.02
timer:  DHSCF2           36      63.666    2291.969     1.48
timer:  REORD          4351       0.009      40.860     0.03
timer:  POISON          511       1.437     734.090     0.47
timer:  DHSCF3          475      86.875   41265.561    26.65
timer:  rhoofd          475      22.673   10769.593     6.96
timer:  cellXC          475       5.501    2613.030     1.69
timer:  vmat            474      38.433   18217.331    11.77
timer:  MolMec           72       0.000       0.002     0.00
timer:  diagon          438     241.880  105943.639    68.43
timer:  c-eigval       7008       6.377   44689.616    28.87
timer:  c-buildHS      7008       0.052     367.151     0.24
timer:  cdiag         14016       6.410   89846.329    58.03
timer:  cdiag1        14016       0.361    5054.400     3.26
timer:  cdiag2        14016       1.312   18386.083    11.88
timer:  cdiag3        14016       4.529   63481.395    41.00
timer:  cdiag4        14016       0.124    1740.693     1.12
timer:  c-eigvec       7008       6.547   45881.749    29.64
timer:  c-buildD       7008       2.191   15356.021     9.92
timer:  DHSCF4           36      57.770    2079.718     1.34
timer:  dfscf            36      52.620    1894.327     1.22
timer:  overfsm          36       0.367      13.225     0.01
timer:  optical           1       0.000       0.000     0.00
  

elaps: ELAPSED times:
elaps:  Routine       Calls   Time/call    Tot.time        %
elaps:  siesta            1   38787.296   38787.296   100.00
elaps:  Setup             1       0.217       0.217     0.00
elaps:  bands             1       0.000       0.000     0.00
elaps:  writewave         1       0.001       0.001     0.00
elaps:  KSV_init          1       0.000       0.000     0.00
elaps:  IterMD           36    1077.007   38772.270    99.96
elaps:  hsparse          36       0.255       9.172     0.02
elaps:  overlap          36       0.122       4.403     0.01
elaps:  IterSCF         438      84.162   36863.078    95.04
elaps:  kinefsm          72       0.117       8.424     0.02
elaps:  nlefsm           72       2.775     199.781     0.52
elaps:  DHSCF           475      24.676   11721.286    30.22
elaps:  DHSCF1           36       0.259       9.310     0.02
elaps:  DHSCF2           36      15.937     573.736     1.48
elaps:  REORD          4351       0.002      10.299     0.03
elaps:  POISON          511       0.360     183.875     0.47
elaps:  DHSCF3          475      21.759   10335.473    26.65
elaps:  rhoofd          475       9.241    4389.534    11.32
elaps:  cellXC          475       1.378     654.510     1.69
elaps:  vmat            474       9.627    4563.211    11.76
elaps:  MolMec           72       0.000       0.001     0.00
elaps:  diagon          438      60.611   26547.604    68.44
elaps:  c-eigval       7008       1.598   11197.349    28.87
elaps:  c-buildHS      7008       0.013      93.224     0.24
elaps:  cdiag         14016       1.607   22525.953    58.08
elaps:  cdiag1        14016       0.089    1249.308     3.22
elaps:  cdiag2        14016       0.329    4605.118    11.87
elaps:  cdiag3        14016       1.135   15910.129    41.02
elaps:  cdiag4        14016       0.032     454.754     1.17
elaps:  c-eigvec       7008       1.643   11512.229    29.68
elaps:  c-buildD       7008       0.547    3830.417     9.88
elaps:  DHSCF4           36      22.142     797.114     2.06
elaps:  dfscf            36      20.536     739.295     1.91
elaps:  overfsm          36       0.094       3.376     0.01
elaps:  optical           1       0.000       0.000     0.00
  
>> End of run:  14-NOV-2019   0:50:25
