
     Program PWSCF v.5.1.1 starts on  1Dec2019 at 14:28:39 

     This program is part of the open-source Quantum ESPRESSO suite
     for quantum simulation of materials; please cite
         "P. Giannozzi et al., J. Phys.:Condens. Matter 21 395502 (2009);
          URL http://www.quantum-espresso.org", 
     in publications or presentations arising from this work. More details at
     http://www.quantum-espresso.org/quote

     Parallel version (MPI & OpenMP), running on      24 processor cores
     Number of MPI processes:                12
     Threads/MPI process:                     2
     R & G space division:  proc/nbgrp/npool/nimage =      12
     Reading input from TiS3.scf.cg.in
Warning: card   &CELL ignored
Warning: card  / ignored

     Current dimensions of program PWSCF are:
     Max number of different atomic species (ntypx) = 10
     Max number of k-points (npk) =  40000
     Max angular momentum in pseudopotentials (lmaxx) =  3

     IMPORTANT: XC functional enforced from input :
     Exchange-correlation      = VDW-DF ( 1  4  4  0 1 0)
     Any further DFT definition will be discarded
     Please, verify this is what you really want


     Subspace diagonalization in iterative solution of the eigenvalue problem:
     a serial algorithm will be used

 
     Parallelization info
     --------------------
     sticks:   dense  smooth     PW     G-vecs:    dense   smooth      PW
     Min         592     309     85               103107    38657    5687
     Max         594     310     86               103110    38691    5696
     Sum        7111    3711   1025              1237307   464101   68291
 


     bravais-lattice index     =            0
     lattice parameter (alat)  =       1.8897  a.u.
     unit-cell volume          =   14101.0269 (a.u.)^3
     number of atoms/cell      =           72
     number of atomic types    =            3
     number of electrons       =       428.00
     number of Kohn-Sham states=          257
     kinetic-energy cutoff     =      39.0000  Ry
     charge density cutoff     =     300.0000  Ry
     convergence threshold     =      1.0E-06
     mixing beta               =       0.3000
     number of iterations used =            8  plain     mixing
     Exchange-correlation      = VDW-DF ( 1  4  4  0 1 0)
     nstep                     =           99


     celldm(1)=   1.889726  celldm(2)=   0.000000  celldm(3)=   0.000000
     celldm(4)=   0.000000  celldm(5)=   0.000000  celldm(6)=   0.000000

     crystal axes: (cart. coord. in units of alat)
               a(1) = (   4.947600   0.000000   0.000000 )  
               a(2) = (   0.000000  16.893500   0.000000 )  
               a(3) = (   0.000000   0.000000  25.000000 )  

     reciprocal axes: (cart. coord. in units 2 pi/alat)
               b(1) = (  0.202118  0.000000  0.000000 )  
               b(2) = (  0.000000  0.059194  0.000000 )  
               b(3) = (  0.000000  0.000000  0.040000 )  


     PseudoPot. # 1 for Ti read from file:
     ./Ti.pbe-spn-rrkjus_psl.0.3.1.UPF
     MD5 check sum: 3a8d0781337a465ed61b0a8b42a1557b
     Pseudo is Ultrasoft + core correction, Zval = 12.0
     Generated using "atomic" code by A. Dal Corso  v.5.0.2 svn rev. 10551
     Using radial grid of 1177 points,  6 beta functions with: 
                l(1) =   0
                l(2) =   0
                l(3) =   1
                l(4) =   1
                l(5) =   2
                l(6) =   2
     Q(r) pseudized with 0 coefficients 


     PseudoPot. # 2 for  S read from file:
     ./S.pbe-n-rrkjus_psl.0.1.UPF
     MD5 check sum: 884d5d7fb9162c2ff34d476565c2f60b
     Pseudo is Ultrasoft + core correction, Zval =  6.0
     Generated using "atomic" code by A. Dal Corso  v.5.0.99 svn rev. 10869
     Using radial grid of 1151 points,  4 beta functions with: 
                l(1) =   0
                l(2) =   0
                l(3) =   1
                l(4) =   1
     Q(r) pseudized with 0 coefficients 


     PseudoPot. # 3 for  C read from file:
     ./C.pbe-n-rrkjus_psl.0.1.UPF
     MD5 check sum: b524aa6f26bea011a39bb5addbeca40d
     Pseudo is Ultrasoft + core correction, Zval =  4.0
     Generated using "atomic" code by A. Dal Corso  v.5.0.99 svn rev. 10869
     Using radial grid of 1073 points,  4 beta functions with: 
                l(1) =   0
                l(2) =   0
                l(3) =   1
                l(4) =   1
     Q(r) pseudized with 0 coefficients 


     vdW kernel table read from file vdW_kernel_table
     MD5 check sum: 48e77a2e26edf626eeb0eaa751ad5cac

     atomic species   valence    mass     pseudopotential
        Ti            12.00    47.86700     Ti( 1.00)
        S              6.00    32.06600      S( 1.00)
        C              4.00    12.01070      C( 1.00)

      2 Sym. Ops. (no inversion) found ( 1 have fractional translation)



   Cartesian axes

     site n.     atom                  positions (alat units)
         1           Ti  tau(   1) = (   1.6286674   0.8470526   2.6198024  )
         2           Ti  tau(   2) = (   1.6255641   4.2233750   2.6149256  )
         3           Ti  tau(   3) = (   1.6286674   7.5996974   2.6198024  )
         4           Ti  tau(   4) = (   1.6341057  10.9787434   2.6329408  )
         5           Ti  tau(   5) = (   1.6341057  14.3615066   2.6329408  )
         6           Ti  tau(   6) = (   4.0747378   2.5334195  -0.1900455  )
         7           Ti  tau(   7) = (   4.0747378   5.9133305  -0.1900455  )
         8           Ti  tau(   8) = (   4.0756076   9.2926504  -0.1867466  )
         9           Ti  tau(   9) = (   4.0762267  12.6701250  -0.1826210  )
        10           Ti  tau(  10) = (   4.0756076  16.0475996  -0.1867466  )
        11           S   tau(  11) = (   3.0630544   0.8439423  23.2557123  )
        12           S   tau(  12) = (   3.0628537   4.2233750  23.2548952  )
        13           S   tau(  13) = (   3.0630544   7.6028077  23.2557123  )
        14           S   tau(  14) = (   3.0633884  10.9817241  23.2581858  )
        15           S   tau(  15) = (   3.0633884  14.3585259  23.2581858  )
        16           S   tau(  16) = (   2.6319540   2.5376504   4.1665127  )
        17           S   tau(  17) = (   2.6319540   5.9090996   4.1665127  )
        18           S   tau(  18) = (   2.6463767   9.2832212   4.1720172  )
        19           S   tau(  19) = (   2.6549843  12.6701250   4.1732839  )
        20           S   tau(  20) = (   2.6463767  16.0570288   4.1720172  )
        21           S   tau(  21) = (   4.0830984   0.8446935   1.6395965  )
        22           S   tau(  22) = (   4.0810117   4.2233750   1.6369508  )
        23           S   tau(  23) = (   4.0830984   7.6020565   1.6395965  )
        24           S   tau(  24) = (   4.0863740  10.9800660   1.6472032  )
        25           S   tau(  25) = (   4.0863740  14.3601840   1.6472032  )
        26           S   tau(  26) = (   1.6204074   2.5328257   0.7960394  )
        27           S   tau(  27) = (   1.6204074   5.9139243   0.7960394  )
        28           S   tau(  28) = (   1.6222598   9.2946615   0.8043740  )
        29           S   tau(  29) = (   1.6233092  12.6701250   0.8117324  )
        30           S   tau(  30) = (   1.6222598  16.0455885   0.8043740  )
        31           S   tau(  31) = (   0.1666933   0.8437146  23.2563407  )
        32           S   tau(  32) = (   0.1664233   4.2233750  23.2556684  )
        33           S   tau(  33) = (   0.1666933   7.6030354  23.2563407  )
        34           S   tau(  34) = (   0.1670566  10.9819199  23.2586140  )
        35           S   tau(  35) = (   0.1670566  14.3583301  23.2586140  )
        36           S   tau(  36) = (   0.5754708   2.5386538   4.1527407  )
        37           S   tau(  37) = (   0.5754708   5.9080962   4.1527407  )
        38           S   tau(  38) = (   0.5896523   9.2819249   4.1727225  )
        39           S   tau(  39) = (   0.5991569  12.6701250   4.1831820  )
        40           S   tau(  40) = (   0.5896523  16.0583251   4.1727225  )
        41           C   tau(  41) = (   1.8568152   3.5200328   7.4520094  )
        42           C   tau(  42) = (   1.8565385   7.7424225   7.4320899  )
        43           C   tau(  43) = (   1.8550657  11.9644868   7.4305625  )
        44           C   tau(  44) = (   1.8553829  16.1889851   7.4506373  )
        45           C   tau(  45) = (   4.3305722   3.5200703   7.4451850  )
        46           C   tau(  46) = (   4.3302836   7.7425642   7.4240549  )
        47           C   tau(  47) = (   4.3286408  11.9649331   7.4204185  )
        48           C   tau(  48) = (   4.3289252  16.1892852   7.4419550  )
        49           C   tau(  49) = (   1.8565385   0.7043275   7.4320899  )
        50           C   tau(  50) = (   1.8568152   4.9267172   7.4520094  )
        51           C   tau(  51) = (   1.8553829   9.1512649   7.4506373  )
        52           C   tau(  52) = (   1.8550657  13.3757632   7.4305625  )
        53           C   tau(  53) = (   4.3302836   0.7041858   7.4240549  )
        54           C   tau(  54) = (   4.3305722   4.9266797   7.4451850  )
        55           C   tau(  55) = (   4.3289252   9.1509648   7.4419550  )
        56           C   tau(  56) = (   4.3286408  13.3753169   7.4204185  )
        57           C   tau(  57) = (   0.6201204   1.4056769   7.4269780  )
        58           C   tau(  58) = (   0.6209523   5.6306101   7.4418949  )
        59           C   tau(  59) = (   0.6196577   9.8552997   7.4480390  )
        60           C   tau(  60) = (   0.6188751  14.0773865   7.4329470  )
        61           C   tau(  61) = (   3.0941412   1.4057586   7.4265309  )
        62           C   tau(  62) = (   3.0950463   5.6306440   7.4412883  )
        63           C   tau(  63) = (   3.0936863   9.8550236   7.4470188  )
        64           C   tau(  64) = (   3.0927988  14.0770777   7.4321121  )
        65           C   tau(  65) = (   0.6209523   2.8161399   7.4418949  )
        66           C   tau(  66) = (   0.6201204   7.0410731   7.4269780  )
        67           C   tau(  67) = (   0.6188751  11.2628635   7.4329470  )
        68           C   tau(  68) = (   0.6196577  15.4849503   7.4480390  )
        69           C   tau(  69) = (   3.0950463   2.8161060   7.4412883  )
        70           C   tau(  70) = (   3.0941412   7.0409914   7.4265309  )
        71           C   tau(  71) = (   3.0927988  11.2631723   7.4321121  )
        72           C   tau(  72) = (   3.0936863  15.4852264   7.4470188  )

     number of k points=     8  gaussian smearing, width (Ry)=  0.0200
                       cart. coord. in units 2pi/alat
        k(    1) = (   0.0000000   0.0000000   0.0000000), wk =   0.1666667
        k(    2) = (   0.0000000  -0.0295972   0.0000000), wk =   0.1666667
        k(    3) = (   0.0336864   0.0000000   0.0000000), wk =   0.3333333
        k(    4) = (   0.0336864  -0.0295972   0.0000000), wk =   0.3333333
        k(    5) = (   0.0673727   0.0000000   0.0000000), wk =   0.3333333
        k(    6) = (   0.0673727  -0.0295972   0.0000000), wk =   0.3333333
        k(    7) = (  -0.1010591   0.0000000   0.0000000), wk =   0.1666667
        k(    8) = (  -0.1010591  -0.0295972   0.0000000), wk =   0.1666667

     Dense  grid:  1237307 G-vectors     FFT dimensions: (  54, 180, 270)

     Smooth grid:   464101 G-vectors     FFT dimensions: (  40, 128, 192)

     Largest allocated arrays     est. size (Mb)     dimensions
        Kohn-Sham Wavefunctions        19.24 Mb     (    4907,  257)
        NL pseudopotentials            50.62 Mb     (    4907,  676)
        Each V/rho on FFT grid          3.41 Mb     (  223560)
        Each G-vector array             0.79 Mb     (  103110)
        G-vector shells                 0.38 Mb     (   49514)
     Largest temporary arrays     est. size (Mb)     dimensions
        Auxiliary wavefunctions        76.97 Mb     (    4907, 1028)
        Each subspace H/S matrix       16.13 Mb     (    1028, 1028)
        Each <psi_i|beta_j> matrix      2.65 Mb     (     676,  257)
        Arrays for rho mixing          27.29 Mb     (  223560,    8)

     Check: negative/imaginary core charge=   -0.000006    0.000000

     Initial potential from superposition of free atoms
     Check: negative starting charge=   -0.023952

     starting charge  427.98291, renormalised to  428.00000

     negative rho (up, down):  2.395E-02 0.000E+00


     ************************************************************************
     *
     * You are using vdW-DF for exchange-correlation in this calculation.
     * Please cite the following three references that made this development
     * possible:
     *
     *   M. Dion, H. Rydberg, E. Schroder, D. C. Langreth, and
     *   B. I. Lundqvist, Phys. Rev. Lett. 92, 246401 (2004).
     *
     *   T. Thonhauser, V. R. Cooper, S. Li, A. Puzder, P. Hyldgaard, and
     *   D. C. Langreth, Phys. Rev. B 76, 125112 (2007).
     *
     *   G. Roman-Perez and J. M. Soler, Phys. Rev. Lett. 103, 096102 (2009).
     *
     *
     * If you are using vdW-DF2, please also cite:
     *
     *   K. Lee, E. D. Murray, L. Kong, B. I. Lundqvist, and
     *   D. C. Langreth, Phys. Rev. B 82, 081101(R) (2010).
     *
     *
     * If you are calculating the stress with vdW-DF, please also cite:
     *
     *   R. Sabatini, E. Kucukbenli, B. Kolb, T. Thonhauser, and
     *   S. de Gironcoli, J. Phys.: Condens. Matter 24, 424209 (2012).
     *
     ************************************************************************

     Carrying out vdW-DF run using the following parameters:

     Nqs =      20    Nr_points =    1024   r_max =   100.000
     q_mesh =
               0.00001000     0.04494208     0.09755937     0.15916263
               0.23128650     0.31572767     0.41458969     0.53033537
               0.66584808     0.82450364     1.01025438     1.22772762
               1.48234092     1.78043706     2.12944203     2.53805004
               3.01644009     3.57652955     4.23227104     5.00000000

     Gradients computed in reciprocal space

     ************************************************************************


     Starting wfc are  378 randomized atomic wfcs

     total cpu time spent up to now is      228.2 secs

     per-process dynamical memory:   312.3 Mb

     Self-consistent Calculation

     iteration #  1     ecut=    39.00 Ry     beta=0.30
     Davidson diagonalization with overlap
     ethr =  1.00E-02,  avg # of iterations =  4.1

     negative rho (up, down):  2.307E-02 0.000E+00

     total cpu time spent up to now is      805.0 secs

     total energy              =   -2322.07050986 Ry
     Harris-Foulkes estimate   =   -2324.58175416 Ry
     estimated scf accuracy    <       6.76892550 Ry

     iteration #  2     ecut=    39.00 Ry     beta=0.30
     Davidson diagonalization with overlap
     ethr =  1.58E-03,  avg # of iterations =  8.0

     negative rho (up, down):  2.556E-02 0.000E+00

     total cpu time spent up to now is     1349.2 secs

     total energy              =   -2321.15553969 Ry
     Harris-Foulkes estimate   =   -2323.95757706 Ry
     estimated scf accuracy    <      16.59677807 Ry

     iteration #  3     ecut=    39.00 Ry     beta=0.30
     Davidson diagonalization with overlap
     ethr =  1.58E-03,  avg # of iterations =  4.6

     negative rho (up, down):  2.487E-02 0.000E+00

     total cpu time spent up to now is     1769.2 secs

     total energy              =   -2322.47619070 Ry
     Harris-Foulkes estimate   =   -2323.71777006 Ry
     estimated scf accuracy    <       8.31097103 Ry

     iteration #  4     ecut=    39.00 Ry     beta=0.30
     Davidson diagonalization with overlap
     ethr =  1.58E-03,  avg # of iterations =  1.6

     negative rho (up, down):  2.575E-02 0.000E+00

     total cpu time spent up to now is     2145.4 secs

     total energy              =   -2322.79162142 Ry
     Harris-Foulkes estimate   =   -2323.22235284 Ry
     estimated scf accuracy    <       1.68368127 Ry

     iteration #  5     ecut=    39.00 Ry     beta=0.30
     Davidson diagonalization with overlap
     ethr =  3.93E-04,  avg # of iterations =  3.9

     negative rho (up, down):  2.687E-02 0.000E+00

     total cpu time spent up to now is     2588.9 secs

     total energy              =   -2323.00791401 Ry
     Harris-Foulkes estimate   =   -2323.07693503 Ry
     estimated scf accuracy    <       0.31280588 Ry

     iteration #  6     ecut=    39.00 Ry     beta=0.30
     Davidson diagonalization with overlap
     ethr =  7.31E-05,  avg # of iterations = 12.6

     negative rho (up, down):  2.770E-02 0.000E+00

     total cpu time spent up to now is     3490.4 secs

     total energy              =   -2323.10073933 Ry
     Harris-Foulkes estimate   =   -2323.11226330 Ry
     estimated scf accuracy    <       0.06265901 Ry

     iteration #  7     ecut=    39.00 Ry     beta=0.30
     Davidson diagonalization with overlap
     ethr =  1.46E-05,  avg # of iterations = 13.1

     negative rho (up, down):  2.836E-02 0.000E+00

     total cpu time spent up to now is     4046.6 secs

     total energy              =   -2323.10463282 Ry
     Harris-Foulkes estimate   =   -2323.10897991 Ry
     estimated scf accuracy    <       0.03441111 Ry

     iteration #  8     ecut=    39.00 Ry     beta=0.30
     Davidson diagonalization with overlap
     ethr =  8.04E-06,  avg # of iterations = 13.6

     negative rho (up, down):  2.904E-02 0.000E+00

     total cpu time spent up to now is     4669.9 secs

     total energy              =   -2323.10883272 Ry
     Harris-Foulkes estimate   =   -2323.11301246 Ry
     estimated scf accuracy    <       0.03930970 Ry

     iteration #  9     ecut=    39.00 Ry     beta=0.30
     Davidson diagonalization with overlap
     c_bands:  1 eigenvalues not converged
     c_bands:  3 eigenvalues not converged
     c_bands:  3 eigenvalues not converged
     c_bands:  1 eigenvalues not converged
     ethr =  8.04E-06,  avg # of iterations = 16.5

     negative rho (up, down):  2.943E-02 0.000E+00

     total cpu time spent up to now is     5221.1 secs

     total energy              =   -2323.11195082 Ry
     Harris-Foulkes estimate   =   -2323.11322196 Ry
     estimated scf accuracy    <       0.00862323 Ry

     iteration # 10     ecut=    39.00 Ry     beta=0.30
     Davidson diagonalization with overlap
     c_bands:  2 eigenvalues not converged
     c_bands:  1 eigenvalues not converged
     c_bands:  3 eigenvalues not converged
     ethr =  2.01E-06,  avg # of iterations = 17.5

     negative rho (up, down):  2.979E-02 0.000E+00

     total cpu time spent up to now is     5780.5 secs

     total energy              =   -2323.11255133 Ry
     Harris-Foulkes estimate   =   -2323.11290837 Ry
     estimated scf accuracy    <       0.00228109 Ry

     iteration # 11     ecut=    39.00 Ry     beta=0.30
     Davidson diagonalization with overlap
     ethr =  5.33E-07,  avg # of iterations =  5.2

     negative rho (up, down):  3.004E-02 0.000E+00

     total cpu time spent up to now is     6315.8 secs

     total energy              =   -2323.11298851 Ry
     Harris-Foulkes estimate   =   -2323.11300245 Ry
     estimated scf accuracy    <       0.00044833 Ry

     iteration # 12     ecut=    39.00 Ry     beta=0.30
     Davidson diagonalization with overlap
     ethr =  1.05E-07,  avg # of iterations =  4.9

     negative rho (up, down):  3.020E-02 0.000E+00

     total cpu time spent up to now is     6815.6 secs

     total energy              =   -2323.11306321 Ry
     Harris-Foulkes estimate   =   -2323.11311246 Ry
     estimated scf accuracy    <       0.00033301 Ry

     iteration # 13     ecut=    39.00 Ry     beta=0.30
     Davidson diagonalization with overlap
     ethr =  7.78E-08,  avg # of iterations =  3.0

     negative rho (up, down):  3.031E-02 0.000E+00

     total cpu time spent up to now is     7220.6 secs

     total energy              =   -2323.11311097 Ry
     Harris-Foulkes estimate   =   -2323.11311962 Ry
     estimated scf accuracy    <       0.00007726 Ry

     iteration # 14     ecut=    39.00 Ry     beta=0.30
     Davidson diagonalization with overlap
     ethr =  1.81E-08,  avg # of iterations =  4.2

     negative rho (up, down):  3.040E-02 0.000E+00

     total cpu time spent up to now is     7710.0 secs

     total energy              =   -2323.11312991 Ry
     Harris-Foulkes estimate   =   -2323.11313400 Ry
     estimated scf accuracy    <       0.00004767 Ry

     iteration # 15     ecut=    39.00 Ry     beta=0.30
     Davidson diagonalization with overlap
     ethr =  1.11E-08,  avg # of iterations =  3.1

     negative rho (up, down):  3.047E-02 0.000E+00

     total cpu time spent up to now is     8128.5 secs

     total energy              =   -2323.11313809 Ry
     Harris-Foulkes estimate   =   -2323.11313724 Ry
     estimated scf accuracy    <       0.00000864 Ry

     iteration # 16     ecut=    39.00 Ry     beta=0.30
     Davidson diagonalization with overlap
     ethr =  2.02E-09,  avg # of iterations =  4.9

     negative rho (up, down):  3.052E-02 0.000E+00

     total cpu time spent up to now is     8815.9 secs

     total energy              =   -2323.11314261 Ry
     Harris-Foulkes estimate   =   -2323.11314191 Ry
     estimated scf accuracy    <       0.00000290 Ry

     iteration # 17     ecut=    39.00 Ry     beta=0.30
     Davidson diagonalization with overlap
     ethr =  6.78E-10,  avg # of iterations =  2.0

     negative rho (up, down):  3.056E-02 0.000E+00

     total cpu time spent up to now is     9208.0 secs

     total energy              =   -2323.11314345 Ry
     Harris-Foulkes estimate   =   -2323.11314296 Ry
     estimated scf accuracy    <       0.00000111 Ry

     iteration # 18     ecut=    39.00 Ry     beta=0.30
     Davidson diagonalization with overlap
     ethr =  2.59E-10,  avg # of iterations =  4.5

     negative rho (up, down):  3.066E-02 0.000E+00

     total cpu time spent up to now is     9688.3 secs

     End of self-consistent calculation

          k = 0.0000 0.0000 0.0000 ( 58029 PWs)   bands (ev):

   -56.3425 -56.3392 -56.3273 -56.3266 -56.3165 -56.3088 -56.3052 -56.3046
   -56.3017 -56.2993 -32.7007 -32.6891 -32.6676 -32.6649 -32.6569 -32.6489
   -32.6431 -32.6401 -32.6380 -32.6364 -32.6273 -32.6263 -32.6204 -32.6199
   -32.6113 -32.6101 -32.6097 -32.6089 -32.6019 -32.5768 -32.4331 -32.4281
   -32.4179 -32.4165 -32.4057 -32.3932 -32.3887 -32.3881 -32.3841 -32.3815
   -18.0685 -17.6947 -17.6946 -16.5841 -16.5822 -14.7733 -14.7728 -14.6171
   -14.5014 -14.4482 -14.4479 -14.3495 -14.3487 -14.1641 -14.1626 -14.0825
   -14.0819 -13.8682 -13.8560 -13.5406 -13.5405 -13.5288 -13.5285 -12.9206
   -12.9195 -12.6985 -12.1726 -11.9371 -11.9370 -11.8005 -11.7712 -11.7686
   -11.2871 -11.2853 -10.5810 -10.5805 -10.5580 -10.5580 -10.5442 -10.5438
   -10.3617 -10.3444 -10.3435  -9.5383  -9.4125  -9.3857  -9.3811  -9.2582
    -9.2573  -9.1984  -9.1983  -9.1004  -9.1003  -9.0338  -9.0127  -8.9789
    -8.9786  -7.5415  -7.5349  -6.2630  -5.9801  -5.9797  -5.9719  -5.9716
    -5.9302  -5.9273  -5.8335  -5.8331  -5.3234  -5.2010  -5.1529  -5.1513
    -5.1246  -5.0603  -5.0596  -5.0022  -5.0020  -4.9628  -4.9604  -4.8304
    -4.8298  -4.7898  -4.7898  -4.5618  -4.5594  -4.3817  -4.3774  -4.3661
    -4.2563  -4.2484  -4.0427  -4.0408  -3.8237  -3.7989  -3.7970  -3.4937
    -3.4933  -3.4904  -3.4900  -3.3707  -3.3706  -3.3544  -3.2003  -3.1993
    -3.1952  -3.1908  -2.9754  -2.9751  -2.8670  -2.8582  -2.5548  -2.5498
    -2.4546  -2.4541  -2.4113  -2.4081  -2.3184  -2.2248  -2.2204  -2.2135
    -2.1098  -2.1070  -1.9156  -1.9137  -1.7307  -1.6947  -1.6938  -1.6451
    -1.5592  -1.4458  -1.3644  -1.3327  -1.3145  -1.2947  -1.2897  -1.1922
    -1.1855  -1.1507  -1.1490  -1.1219  -1.1210  -1.0929  -1.0922  -1.0873
    -1.0856  -0.9513  -0.9263  -0.9227  -0.8027  -0.6738  -0.6040  -0.5262
    -0.3248  -0.3247  -0.2740  -0.2718  -0.1601  -0.0766  -0.0735  -0.0734
    -0.0232  -0.0186  -0.0129   0.0226   0.0233   0.0747   0.0751   0.1426
     0.4516   0.4517   0.5691   0.7072   1.0033   1.0115   1.3431   1.6807
     2.0677   2.0682   2.3985   2.4003   2.7650   2.7729   2.8187   2.8221
     2.9172   2.9258   3.0180   3.0262   3.0428   3.0756   3.0794   3.0885
     3.1308   3.1615   3.1912   3.2434   3.3129   3.3130   3.3506   3.3776
     3.3789   3.5002   3.5338   3.5601   3.6107   3.6565   3.6766   3.6828
     3.6904   3.6921   3.7570   3.7772   3.7789   3.8025   3.8070   3.8270
     3.8432

          k = 0.0000-0.0296 0.0000 ( 58052 PWs)   bands (ev):

   -56.3425 -56.3392 -56.3272 -56.3267 -56.3165 -56.3088 -56.3058 -56.3038
   -56.3021 -56.2992 -32.7055 -32.6756 -32.6707 -32.6682 -32.6567 -32.6494
   -32.6429 -32.6426 -32.6395 -32.6369 -32.6271 -32.6258 -32.6234 -32.6188
   -32.6146 -32.6136 -32.6082 -32.6063 -32.5874 -32.5850 -32.4331 -32.4282
   -32.4177 -32.4167 -32.4057 -32.3930 -32.3899 -32.3864 -32.3850 -32.3813
   -17.9775 -17.9722 -17.2312 -17.2282 -15.7660 -15.7552 -14.5741 -14.5671
   -14.4605 -14.4600 -14.2968 -14.2954 -14.2048 -14.2046 -14.1160 -14.0342
   -13.7874 -13.7823 -13.7746 -13.7690 -13.6370 -13.6352 -13.1805 -13.1754
   -13.1691 -13.1646 -12.1140 -12.1125 -11.6526 -11.6522 -11.3742 -11.3648
   -11.3635 -11.3500 -10.9003 -10.8974 -10.7278 -10.7251 -10.3995 -10.3989
   -10.3536 -10.3490  -9.6357  -9.6333  -9.6199  -9.6184  -9.5003  -9.4911
    -9.3719  -9.3699  -9.2293  -9.2289  -9.1085  -9.1084  -9.0482  -8.9268
    -7.5774  -7.5707  -6.9263  -6.9204  -6.9164  -6.9119  -6.1558  -6.1529
    -5.3523  -5.3497  -5.2772  -5.2701  -5.2519  -5.2423  -5.2413  -5.2289
    -5.1146  -5.1143  -5.1080  -5.1058  -5.0241  -5.0235  -4.8921  -4.8914
    -4.8433  -4.7060  -4.6819  -4.5261  -4.3898  -4.3841  -4.3547  -4.3365
    -4.2906  -4.2857  -3.9649  -3.9633  -3.8597  -3.7435  -3.7416  -3.7404
    -3.7400  -3.6873  -3.6862  -3.4004  -3.3468  -3.3404  -3.3395  -3.1383
    -3.1103  -3.0952  -3.0943  -3.0891  -3.0885  -3.0436  -2.5792  -2.5674
    -2.4289  -2.4270  -2.2558  -2.2331  -2.2310  -2.1841  -2.0128  -1.9991
    -1.9331  -1.9319  -1.9199  -1.9099  -1.9094  -1.8952  -1.5907  -1.5900
    -1.4543  -1.4061  -1.3891  -1.3439  -1.3419  -1.3004  -1.2888  -1.2810
    -1.2549  -1.2431  -1.2267  -1.2204  -1.1589  -1.1334  -1.0018  -1.0013
    -0.8568  -0.8554  -0.8287  -0.8277  -0.8132  -0.8063  -0.6568  -0.6550
    -0.5884  -0.5815  -0.4305  -0.4258  -0.1579  -0.0598  -0.0597  -0.0582
    -0.0371  -0.0211   0.1045   0.1047   0.1146   0.1179   0.3401   0.3476
     0.4773   0.4779   0.5168   0.5203   0.8609   0.8614   1.6083   1.6129
     2.0155   2.0197   2.4887   2.4900   2.6803   2.6812   2.8317   2.8592
     2.9427   2.9429   2.9863   3.0246   3.0526   3.0638   3.0980   3.0983
     3.1813   3.2031   3.3303   3.3575   3.4067   3.4078   3.4143   3.4217
     3.4369   3.4387   3.5026   3.5062   3.5397   3.5448   3.5454   3.5712
     3.6934   3.7278   3.7308   3.7974   3.8033   3.8290   3.9138   3.9149
     3.9577

          k = 0.0337 0.0000 0.0000 ( 58063 PWs)   bands (ev):

   -56.3425 -56.3392 -56.3273 -56.3266 -56.3165 -56.3088 -56.3052 -56.3046
   -56.3017 -56.2993 -32.7006 -32.6891 -32.6675 -32.6648 -32.6567 -32.6488
   -32.6429 -32.6400 -32.6379 -32.6363 -32.6272 -32.6266 -32.6207 -32.6202
   -32.6113 -32.6102 -32.6099 -32.6089 -32.6018 -32.5767 -32.4334 -32.4285
   -32.4182 -32.4168 -32.4060 -32.3936 -32.3892 -32.3886 -32.3845 -32.3819
   -17.9474 -17.5741 -17.5740 -16.4654 -16.4635 -15.1052 -14.7498 -14.7496
   -14.6597 -14.6592 -14.5497 -14.4414 -14.3843 -14.3841 -14.2911 -14.2904
   -14.1099 -14.1082 -14.0287 -14.0281 -13.7201 -13.7188 -12.5950 -12.5014
   -12.4987 -12.4938 -12.0837 -11.8519 -11.8519 -11.7018 -11.3677 -11.3677
   -11.2257 -11.2239 -10.7869 -10.7845 -10.6057 -10.6056 -10.5953 -10.5133
   -10.5129 -10.1334  -9.8411  -9.6926  -9.6925  -9.6891  -9.5596  -9.5588
    -9.4347  -9.4345  -9.3056  -9.3056  -9.2000  -9.1997  -9.1318  -9.1318
    -8.5552  -7.7425  -6.7560  -6.7559  -6.3300  -6.1061  -5.9724  -5.9696
    -5.7035  -5.6726  -5.6723  -5.3226  -5.3220  -5.1393  -5.1379  -5.0011
    -4.9992  -4.7778  -4.6727  -4.6633  -4.6624  -4.6473  -4.6461  -4.5105
    -4.5102  -4.4110  -4.4092  -4.2881  -4.2570  -4.2531  -4.2320  -4.2303
    -4.2248  -4.2130  -4.0548  -4.0528  -3.9658  -3.9641  -3.4600  -3.4590
    -3.3804  -3.3717  -3.3713  -3.3505  -3.3504  -3.3466  -3.3172  -3.3170
    -3.2255  -3.2255  -3.0835  -3.0778  -2.9197  -2.9168  -2.8322  -2.8250
    -2.7153  -2.6827  -2.6827  -2.4137  -2.4114  -2.3780  -2.3775  -2.2886
    -2.1967  -2.1901  -2.1548  -2.1508  -1.9280  -1.8906  -1.8839  -1.8030
    -1.8029  -1.7513  -1.7487  -1.7091  -1.7063  -1.6497  -1.5034  -1.4518
    -1.2708  -1.2537  -1.1946  -1.1892  -0.9754  -0.9752  -0.8922  -0.8915
    -0.8756  -0.7683  -0.7014  -0.6316  -0.5239  -0.4927  -0.4731  -0.4253
    -0.4240  -0.2522  -0.2343  -0.2180  -0.1846  -0.1808  -0.1739  -0.1703
    -0.1325  -0.1235  -0.0391  -0.0314  -0.0213  -0.0010   0.0031   0.2629
     0.3536   0.4011   0.4031   0.5878   0.6731   0.9994   1.4366   1.6990
     2.1488   2.1493   2.3880   2.3887   2.7370   2.7413   2.8459   2.8516
     2.8549   2.8575   2.9146   2.9238   2.9294   2.9300   2.9549   2.9765
     2.9803   3.0666   3.0702   3.1333   3.1747   3.1908   3.2618   3.2622
     3.2733   3.3159   3.3167   3.3251   3.4855   3.5045   3.5231   3.5626
     3.5698   3.5784   3.7442   3.7484   3.7731   3.8422   3.8457   3.8901
     4.0452

          k = 0.0337-0.0296 0.0000 ( 57978 PWs)   bands (ev):

   -56.3425 -56.3392 -56.3272 -56.3267 -56.3164 -56.3088 -56.3058 -56.3037
   -56.3021 -56.2992 -32.7055 -32.6755 -32.6706 -32.6681 -32.6565 -32.6491
   -32.6426 -32.6423 -32.6396 -32.6370 -32.6271 -32.6261 -32.6236 -32.6189
   -32.6147 -32.6138 -32.6082 -32.6063 -32.5874 -32.5850 -32.4334 -32.4285
   -32.4180 -32.4170 -32.4060 -32.3934 -32.3903 -32.3868 -32.3854 -32.3817
   -17.8565 -17.8513 -17.1113 -17.1083 -15.6492 -15.6384 -15.0183 -15.0133
   -14.5078 -14.5008 -14.4009 -14.4003 -14.3195 -14.3174 -14.2306 -14.2295
   -14.1487 -14.1484 -14.0623 -13.9814 -13.5281 -13.5263 -13.0392 -13.0228
   -12.4594 -12.4539 -12.0257 -12.0245 -11.5749 -11.5745 -11.3041 -11.3038
   -10.8708 -10.8684 -10.7065 -10.7038 -10.6398 -10.6369 -10.5714 -10.5665
   -10.4967 -10.4962 -10.0688 -10.0533  -9.8043  -9.7964  -9.6567  -9.6547
    -9.5534  -9.5527  -9.4265  -9.4263  -9.3818  -9.2562  -8.3010  -8.2990
    -7.8763  -7.8718  -7.5499  -7.5427  -5.9985  -5.9954  -5.8281  -5.8219
    -5.7212  -5.7133  -5.6086  -5.6062  -5.1589  -5.1554  -4.8628  -4.8529
    -4.8056  -4.7916  -4.7406  -4.7331  -4.6428  -4.6286  -4.6272  -4.5545
    -4.5529  -4.5315  -4.5112  -4.4859  -4.3569  -4.3568  -4.2621  -4.2088
    -4.2048  -4.1160  -3.8974  -3.8965  -3.7753  -3.6458  -3.6447  -3.5882
    -3.5881  -3.4888  -3.4630  -3.4124  -3.3635  -3.3620  -3.3223  -3.3220
    -3.2666  -3.2098  -3.2095  -3.1054  -3.0859  -3.0841  -2.6513  -2.6430
    -2.5384  -2.5357  -2.5199  -2.5174  -2.5071  -2.4323  -2.3887  -2.3866
    -2.0994  -2.0913  -2.0507  -2.0387  -2.0318  -1.9892  -1.9786  -1.9712
    -1.8645  -1.8615  -1.6668  -1.6649  -1.5281  -1.5275  -1.4425  -1.3313
    -1.2403  -1.2372  -1.1392  -1.1338  -0.9468  -0.9405  -0.9285  -0.8315
    -0.7590  -0.7575  -0.7439  -0.7395  -0.6588  -0.6499  -0.6432  -0.6411
    -0.3140  -0.3079  -0.2471  -0.2135  -0.2038  -0.1700  -0.1508  -0.1459
    -0.1309  -0.1204  -0.0483  -0.0466  -0.0008  -0.0003   0.1690   0.1765
     0.4096   0.4152   0.5297   0.5339   0.7122   0.7132   1.7042   1.7091
     1.9989   2.0031   2.5401   2.5415   2.6930   2.6940   2.8048   2.8340
     2.8460   2.8489   2.8745   2.8825   2.9657   2.9708   2.9932   3.0293
     3.0307   3.0411   3.1227   3.1229   3.1924   3.2038   3.2878   3.2943
     3.3062   3.3103   3.4103   3.4179   3.4325   3.4372   3.5116   3.5529
     3.6240   3.6290   3.8025   3.8095   3.8338   3.8458   3.9523   3.9526
     3.9886

          k = 0.0674 0.0000 0.0000 ( 57942 PWs)   bands (ev):

   -56.3425 -56.3392 -56.3272 -56.3266 -56.3164 -56.3088 -56.3052 -56.3046
   -56.3017 -56.2993 -32.7005 -32.6889 -32.6673 -32.6646 -32.6562 -32.6485
   -32.6424 -32.6399 -32.6375 -32.6360 -32.6272 -32.6269 -32.6211 -32.6208
   -32.6115 -32.6103 -32.6101 -32.6090 -32.6018 -32.5767 -32.4340 -32.4292
   -32.4188 -32.4175 -32.4067 -32.3945 -32.3900 -32.3895 -32.3853 -32.3826
   -17.5851 -17.2134 -17.2132 -16.1539 -16.1106 -16.1087 -15.7895 -15.7893
   -14.7168 -14.7148 -14.4029 -14.3219 -14.3213 -14.3096 -14.2482 -14.2482
   -14.1627 -14.1619 -13.9843 -13.9834 -13.9108 -13.9103 -13.0175 -13.0173
   -12.2849 -11.8467 -11.6245 -11.6244 -11.4241 -11.2921 -11.0959 -11.0682
   -11.0666 -11.0509 -10.9227 -10.9227 -10.7027 -10.7020 -10.3570 -10.3424
   -10.3401 -10.2002 -10.1981 -10.1586 -10.0448 -10.0444  -9.9751  -9.9739
    -9.8414  -9.8409  -9.2631  -9.2615  -9.0927  -8.9818  -8.9818  -7.6741
    -7.6739  -7.3768  -7.3768  -6.9371  -6.4927  -6.4922  -6.3917  -6.3892
    -6.3183  -5.6689  -5.2387  -5.2387  -5.0968  -5.0940  -5.0401  -4.9898
    -4.9878  -4.5167  -4.5163  -4.4772  -4.4713  -4.3260  -4.3256  -4.3111
    -4.2140  -4.2121  -4.0046  -4.0038  -3.9776  -3.9731  -3.9709  -3.6500
    -3.6500  -3.5673  -3.5495  -3.5483  -3.4434  -3.4298  -3.4293  -3.3793
    -3.3779  -3.3597  -3.3590  -3.3548  -3.2319  -3.0764  -3.0763  -3.0673
    -3.0661  -3.0061  -3.0044  -2.9848  -2.9817  -2.9305  -2.9305  -2.8764
    -2.8748  -2.8407  -2.8319  -2.7333  -2.7324  -2.6840  -2.6077  -2.6043
    -2.3821  -2.2770  -2.2740  -2.2405  -2.2303  -2.2094  -2.1160  -2.0909
    -2.0878  -1.8676  -1.8634  -1.8459  -1.7563  -1.7541  -1.7314  -1.7300
    -1.4105  -1.4051  -1.1895  -1.1853  -1.1546  -1.1252  -1.1211  -0.7785
    -0.7757  -0.7195  -0.6824  -0.6730  -0.5369  -0.5315  -0.4873  -0.4853
    -0.4774  -0.4567  -0.4501  -0.3600  -0.3579  -0.3014  -0.2994  -0.2578
    -0.1834  -0.1798  -0.1433  -0.0916  -0.0778  -0.0654  -0.0618  -0.0158
     0.0298   0.1649   0.1661   0.6450   0.8623   1.4270   1.5853   1.6031
     1.7258   2.2690   2.2708   2.3265   2.3630   2.3648   2.6859   2.6879
     2.7125   2.7157   2.7272   2.7974   2.8027   2.8603   2.8620   2.8959
     2.8981   2.9045   2.9240   2.9414   2.9421   2.9498   3.0171   3.0195
     3.0476   3.0477   3.0766   3.1684   3.1751   3.3405   3.4141   3.4220
     3.4591   3.4889   3.4950   3.5909   3.5944   3.6629   3.8818   3.8825
     3.9368

          k = 0.0674-0.0296 0.0000 ( 57938 PWs)   bands (ev):

   -56.3425 -56.3392 -56.3272 -56.3267 -56.3164 -56.3088 -56.3058 -56.3037
   -56.3021 -56.2992 -32.7054 -32.6753 -32.6705 -32.6680 -32.6560 -32.6485
   -32.6419 -32.6418 -32.6398 -32.6372 -32.6270 -32.6266 -32.6240 -32.6191
   -32.6150 -32.6143 -32.6083 -32.6063 -32.5874 -32.5850 -32.4340 -32.4292
   -32.4186 -32.4176 -32.4066 -32.3944 -32.3913 -32.3876 -32.3863 -32.3824
   -17.4946 -17.4893 -16.7527 -16.7498 -16.0651 -16.0599 -15.3394 -15.3369
   -15.3005 -15.2895 -14.3639 -14.3569 -14.2700 -14.2690 -14.1087 -14.1070
   -14.0253 -14.0251 -13.9769 -13.9403 -13.8908 -13.8660 -13.2041 -13.2024
   -12.0374 -12.0369 -11.7901 -11.7898 -11.3685 -11.3683 -11.0515 -11.0464
   -10.8099 -10.8087 -10.7729 -10.7728 -10.6937 -10.6908 -10.3995 -10.3955
   -10.3125 -10.3092 -10.1286 -10.1259 -10.0729 -10.0720  -9.9387  -9.9377
    -9.9376  -9.8713  -9.8707  -9.8021  -8.5309  -8.5238  -8.5233  -8.5067
    -7.5946  -7.5869  -6.8294  -6.8267  -6.8210  -6.8195  -6.1526  -6.1478
    -5.8989  -5.8906  -5.5619  -5.5585  -5.4143  -5.3916  -4.7256  -4.7216
    -4.6871  -4.6800  -4.5772  -4.4600  -4.4458  -4.4288  -4.2246  -4.2193
    -4.0634  -4.0629  -3.9398  -3.9166  -3.8831  -3.8761  -3.7470  -3.7465
    -3.6864  -3.6840  -3.6239  -3.5752  -3.5170  -3.5125  -3.4251  -3.4220
    -3.3843  -3.3842  -3.3608  -3.3606  -3.2924  -3.2174  -3.2164  -3.1859
    -3.1801  -3.0237  -3.0236  -2.9304  -2.9269  -2.8924  -2.8840  -2.8830
    -2.8802  -2.8557  -2.6927  -2.6871  -2.6516  -2.5481  -2.5475  -2.4784
    -2.4222  -2.4107  -2.3700  -2.3293  -2.3267  -2.2963  -2.2960  -2.2537
    -2.0436  -2.0436  -1.7854  -1.7827  -1.6762  -1.6760  -1.5039  -1.4865
    -1.2035  -1.2005  -1.1999  -1.1881  -1.0843  -1.0827  -0.9391  -0.9371
    -0.8405  -0.8393  -0.7788  -0.7759  -0.7449  -0.7406  -0.5476  -0.5216
    -0.4817  -0.4800  -0.4080  -0.4072  -0.3303  -0.3283  -0.3262  -0.3219
    -0.2619  -0.2587  -0.1365  -0.1350  -0.0296  -0.0289   0.1738   0.1739
     0.3435   0.3463   0.5204   0.5217   0.5280   0.5314   1.8496   1.8530
     1.9789   1.9834   2.4081   2.4346   2.5153   2.5541   2.6328   2.6342
     2.6848   2.6857   2.6994   2.7001   2.7680   2.7836   2.7896   2.7969
     2.8748   2.8757   2.9542   2.9569   2.9813   3.0022   3.0062   3.0072
     3.0257   3.0486   3.0868   3.0878   3.3093   3.3204   3.3904   3.4202
     3.5546   3.6109   3.6546   3.7050   3.7520   3.7544   3.8326   3.8333
     3.9172

          k =-0.1011 0.0000 0.0000 ( 57974 PWs)   bands (ev):

   -56.3425 -56.3392 -56.3272 -56.3266 -56.3164 -56.3088 -56.3052 -56.3046
   -56.3017 -56.2993 -32.7004 -32.6888 -32.6671 -32.6645 -32.6559 -32.6484
   -32.6422 -32.6398 -32.6374 -32.6359 -32.6275 -32.6268 -32.6214 -32.6212
   -32.6115 -32.6104 -32.6102 -32.6091 -32.6018 -32.5768 -32.4344 -32.4295
   -32.4192 -32.4178 -32.4070 -32.3950 -32.3905 -32.3900 -32.3857 -32.3830
   -16.9886 -16.9813 -16.6196 -16.6195 -16.6124 -16.6122 -15.5278 -15.5259
   -15.5203 -15.5184 -14.3184 -14.2363 -14.1710 -14.1709 -14.0910 -14.0901
   -13.9370 -13.9349 -13.8457 -13.8452 -13.7572 -13.7569 -13.7474 -13.7468
   -11.7712 -11.7676 -11.5516 -11.5041 -11.3387 -11.3382 -11.2977 -11.2971
   -11.0819 -11.0796 -10.8861 -10.8839 -10.8701 -10.8652 -10.5429 -10.4257
   -10.4066 -10.4025 -10.2859 -10.2851 -10.2055 -10.2044 -10.0726 -10.0718
    -9.1597  -9.1596  -9.1587  -9.1586  -8.3650  -8.3639  -7.6777  -7.6761
    -7.6760  -7.6736  -7.5011  -7.5009  -7.5005  -7.5001  -6.0635  -6.0632
    -6.0610  -6.0607  -5.1746  -5.1721  -5.1715  -5.1702  -5.0322  -4.8882
    -4.8156  -4.8122  -4.6223  -4.6221  -4.4623  -4.4622  -4.3792  -4.3691
    -4.2839  -4.2826  -3.8199  -3.7797  -3.7780  -3.7450  -3.6234  -3.6230
    -3.6196  -3.6192  -3.6142  -3.6102  -3.5198  -3.5198  -3.4677  -3.4634
    -3.4593  -3.4562  -3.2677  -3.2600  -3.1745  -3.1711  -3.1211  -3.1188
    -3.0747  -3.0738  -2.7957  -2.7922  -2.7904  -2.7070  -2.6555  -2.6533
    -2.5379  -2.5365  -2.5059  -2.5052  -2.4636  -2.4547  -2.4059  -2.3996
    -2.2423  -2.2407  -2.1701  -2.1696  -2.1669  -2.0888  -2.0866  -2.0765
    -2.0362  -2.0359  -1.7133  -1.6730  -1.6519  -1.6472  -1.6220  -1.6140
    -1.2841  -1.2822  -1.2466  -1.2275  -1.2005  -1.1996  -1.0823  -1.0790
    -1.0034  -1.0027  -0.7180  -0.7152  -0.6648  -0.6647  -0.6542  -0.6479
    -0.5883  -0.5865  -0.4631  -0.4289  -0.2994  -0.2969  -0.2956  -0.2732
    -0.2718  -0.2691  -0.2209  -0.2123  -0.1824  -0.1399  -0.1126  -0.1118
    -0.0717  -0.0688   0.5946   0.6220   0.6647   0.7386   1.6103   1.6336
     1.9804   1.9916   2.0076   2.0999   2.1070   2.1150   2.1838   2.1893
     2.3223   2.3230   2.3904   2.4103   2.4360   2.4515   2.4526   2.4697
     2.8592   2.8642   2.8911   2.8943   2.9563   2.9593   2.9607   2.9666
     2.9782   2.9843   2.9868   3.0169   3.0191   3.0572   3.3226   3.3361
     3.3396   3.3763   3.3842   3.3850   3.9248   3.9270   3.9472   3.9477
     3.9724

          k =-0.1011-0.0296 0.0000 ( 57984 PWs)   bands (ev):

   -56.3425 -56.3392 -56.3272 -56.3267 -56.3164 -56.3088 -56.3058 -56.3037
   -56.3021 -56.2992 -32.7053 -32.6752 -32.6705 -32.6680 -32.6557 -32.6482
   -32.6416 -32.6415 -32.6398 -32.6374 -32.6269 -32.6268 -32.6242 -32.6191
   -32.6152 -32.6146 -32.6083 -32.6063 -32.5873 -32.5850 -32.4343 -32.4296
   -32.4190 -32.4180 -32.4070 -32.3948 -32.3918 -32.3881 -32.3868 -32.3828
   -16.8987 -16.8936 -16.8915 -16.8862 -16.1632 -16.1599 -16.1553 -16.1532
   -14.7281 -14.7228 -14.7204 -14.7085 -14.2815 -14.2745 -14.1971 -14.1958
   -14.0369 -14.0350 -13.9567 -13.9564 -13.8726 -13.8023 -12.6784 -12.6777
   -12.6761 -12.6741 -11.4988 -11.4932 -11.4503 -11.4497 -11.1113 -11.1112
   -11.0796 -11.0793 -10.7780 -10.7773 -10.5101 -10.5023 -10.3892 -10.3850
   -10.2869 -10.2858 -10.1831 -10.1673 -10.1643 -10.1626 -10.1624 -10.1621
   -10.1610 -10.0438  -8.3960  -8.3943  -8.3939  -8.3916  -8.1711  -8.1706
    -8.1683  -8.1675  -6.9084  -6.9063  -6.8872  -6.8849  -6.3883  -6.3878
    -6.3867  -6.3864  -5.2601  -5.2601  -5.2581  -5.2565  -4.9290  -4.9271
    -4.7841  -4.7779  -4.5832  -4.4946  -4.1810  -4.1796  -4.1704  -4.1595
    -4.1563  -4.1409  -3.9490  -3.9474  -3.8043  -3.8029  -3.7350  -3.7337
    -3.7293  -3.7288  -3.6656  -3.6535  -3.6019  -3.6007  -3.5945  -3.5920
    -3.5351  -3.5063  -3.2913  -3.2907  -3.1796  -3.1787  -3.0973  -2.8524
    -2.8517  -2.8271  -2.8251  -2.8246  -2.8225  -2.8173  -2.7453  -2.7438
    -2.6142  -2.6025  -2.3701  -2.3592  -2.3367  -2.2981  -2.2908  -2.2861
    -2.2812  -2.2345  -2.2275  -2.1963  -2.1961  -2.0664  -1.9815  -1.9814
    -1.9736  -1.9182  -1.9165  -1.8960  -1.6634  -1.6587  -1.6478  -1.6464
    -1.5500  -1.5481  -1.5417  -1.5365  -1.0361  -1.0284  -1.0085  -1.0075
    -0.9696  -0.9696  -0.7452  -0.7248  -0.5772  -0.5767  -0.5032  -0.4992
    -0.4703  -0.4659  -0.4622  -0.4595  -0.3325  -0.3188  -0.2219  -0.2209
    -0.2198  -0.2191  -0.1773  -0.1727  -0.1510  -0.1453  -0.0644  -0.0619
    -0.0008   0.0023   0.3242   0.3289   0.3913   0.3943   1.8025   1.8089
     1.8556   1.8570   2.1087   2.1106   2.1341   2.1387   2.2063   2.2091
     2.2114   2.2464   2.2467   2.3428   2.7189   2.7211   2.7329   2.7340
     2.8847   2.8896   2.8942   2.9219   2.9459   2.9487   2.9637   3.0135
     3.0168   3.0527   3.0800   3.0806   3.1042   3.1177   3.1397   3.1862
     3.2564   3.2646   3.2730   3.2799   3.6523   3.6552   3.6969   3.6985
     3.9137

     the Fermi energy is     1.3138 ev

!    total energy              =   -2323.11314385 Ry
     Harris-Foulkes estimate   =   -2323.11314370 Ry
     estimated scf accuracy    <       0.00000056 Ry

     The total energy is the sum of the following terms:

     one-electron contribution =  -18124.73073728 Ry
     hartree contribution      =    9144.29149443 Ry
     xc contribution           =    -590.38796445 Ry
     ewald contribution        =    7247.72311091 Ry
     smearing contrib. (-TS)   =      -0.00904747 Ry

     convergence has been achieved in  18 iterations

     Forces acting on atoms (Ry/au):


     negative rho (up, down):  3.066E-02 0.000E+00
     atom    1 type  1   force =    -0.00610895   -0.00021184   -0.01018450
     atom    2 type  1   force =    -0.00636846    0.00000000   -0.01057078
     atom    3 type  1   force =    -0.00610895    0.00021184   -0.01018450
     atom    4 type  1   force =    -0.00591467   -0.00008082   -0.01037374
     atom    5 type  1   force =    -0.00591467    0.00008082   -0.01037374
     atom    6 type  1   force =     0.00529502    0.00001648    0.00587292
     atom    7 type  1   force =     0.00529502   -0.00001648    0.00587292
     atom    8 type  1   force =     0.00534995   -0.00002803    0.00644425
     atom    9 type  1   force =     0.00537287    0.00000000    0.00670987
     atom   10 type  1   force =     0.00534995    0.00002803    0.00644425
     atom   11 type  2   force =    -0.00424327   -0.00023428    0.00030425
     atom   12 type  2   force =    -0.00430625    0.00000000    0.00005265
     atom   13 type  2   force =    -0.00424327    0.00023428    0.00030425
     atom   14 type  2   force =    -0.00416432    0.00014847    0.00065427
     atom   15 type  2   force =    -0.00416432   -0.00014847    0.00065427
     atom   16 type  2   force =     0.00364886   -0.00004570   -0.00490368
     atom   17 type  2   force =     0.00364886    0.00004570   -0.00490368
     atom   18 type  2   force =     0.00348728    0.00012409   -0.00551190
     atom   19 type  2   force =     0.00357359    0.00000000   -0.00561305
     atom   20 type  2   force =     0.00348728   -0.00012409   -0.00551190
     atom   21 type  2   force =     0.00305087    0.00018178    0.00185698
     atom   22 type  2   force =     0.00308753    0.00000000    0.00169172
     atom   23 type  2   force =     0.00305087   -0.00018178    0.00185698
     atom   24 type  2   force =     0.00304096   -0.00011284    0.00166444
     atom   25 type  2   force =     0.00304096    0.00011284    0.00166444
     atom   26 type  2   force =    -0.00304210   -0.00004103   -0.00491940
     atom   27 type  2   force =    -0.00304210    0.00004103   -0.00491940
     atom   28 type  2   force =    -0.00295855   -0.00015278   -0.00501551
     atom   29 type  2   force =    -0.00286284    0.00000000   -0.00521409
     atom   30 type  2   force =    -0.00295855    0.00015278   -0.00501551
     atom   31 type  2   force =     0.00147644   -0.00022626    0.00272545
     atom   32 type  2   force =     0.00148177    0.00000000    0.00250859
     atom   33 type  2   force =     0.00147644    0.00022626    0.00272545
     atom   34 type  2   force =     0.00150243    0.00011540    0.00301902
     atom   35 type  2   force =     0.00150243   -0.00011540    0.00301902
     atom   36 type  2   force =    -0.00033216   -0.00014341   -0.00785850
     atom   37 type  2   force =    -0.00033216    0.00014341   -0.00785850
     atom   38 type  2   force =    -0.00025608    0.00025907   -0.00798040
     atom   39 type  2   force =    -0.00041059    0.00000000   -0.00782644
     atom   40 type  2   force =    -0.00025608   -0.00025907   -0.00798040
     atom   41 type  3   force =     0.00161436   -0.00879072    0.00116689
     atom   42 type  3   force =     0.00014242   -0.00225146    0.00255352
     atom   43 type  3   force =     0.00084416    0.00020209    0.00302891
     atom   44 type  3   force =     0.00224277   -0.00602869    0.00174860
     atom   45 type  3   force =     0.00154415   -0.00860329    0.00194217
     atom   46 type  3   force =     0.00004958   -0.00247292    0.00372567
     atom   47 type  3   force =     0.00120506   -0.00075932    0.00404354
     atom   48 type  3   force =     0.00265113   -0.00647237    0.00223806
     atom   49 type  3   force =     0.00014242    0.00225146    0.00255352
     atom   50 type  3   force =     0.00161436    0.00879072    0.00116689
     atom   51 type  3   force =     0.00224277    0.00602869    0.00174860
     atom   52 type  3   force =     0.00084416   -0.00020209    0.00302891
     atom   53 type  3   force =     0.00004958    0.00247292    0.00372567
     atom   54 type  3   force =     0.00154415    0.00860329    0.00194217
     atom   55 type  3   force =     0.00265113    0.00647237    0.00223806
     atom   56 type  3   force =     0.00120506    0.00075932    0.00404354
     atom   57 type  3   force =    -0.00018193   -0.00000067    0.00397815
     atom   58 type  3   force =    -0.00184659   -0.00336463    0.00325257
     atom   59 type  3   force =    -0.00230801   -0.00795367    0.00185135
     atom   60 type  3   force =    -0.00078422   -0.00486444    0.00252019
     atom   61 type  3   force =    -0.00018280   -0.00014257    0.00380303
     atom   62 type  3   force =    -0.00186356   -0.00348947    0.00317053
     atom   63 type  3   force =    -0.00217668   -0.00696102    0.00183824
     atom   64 type  3   force =    -0.00056534   -0.00387118    0.00247538
     atom   65 type  3   force =    -0.00184659    0.00336463    0.00325257
     atom   66 type  3   force =    -0.00018193    0.00000067    0.00397815
     atom   67 type  3   force =    -0.00078422    0.00486444    0.00252019
     atom   68 type  3   force =    -0.00230801    0.00795367    0.00185135
     atom   69 type  3   force =    -0.00186356    0.00348947    0.00317053
     atom   70 type  3   force =    -0.00018280    0.00014257    0.00380303
     atom   71 type  3   force =    -0.00056534    0.00387118    0.00247538
     atom   72 type  3   force =    -0.00217668    0.00696102    0.00183824

     Total force =     0.055790     Total SCF correction =     0.002163

     BFGS Geometry Optimization

     number of scf cycles    =   1
     number of bfgs steps    =   0

     energy   new            =   -2323.1131438506 Ry

     new trust radius        =       0.0123409347 bohr
     new conv_thr            =       0.0000010000 Ry


ATOMIC_POSITIONS (crystal)
Ti       0.328529931   0.050134105   0.104576520
Ti       0.327874939   0.250000000   0.104373270
Ti       0.328529931   0.449865895   0.104576520
Ti       0.329649893   0.649877207   0.105098051
Ti       0.329649893   0.850122793   0.105098051
Ti       0.824145004   0.149964672  -0.007477507
Ti       0.824145004   0.350035328  -0.007477507
Ti       0.824326680   0.550071659  -0.007333458
Ti       0.824454260   0.750000000  -0.007162810
Ti       0.824326680   0.949928341  -0.007333458
S        0.618645185   0.049949288   0.930234934
S        0.618597894   0.250000000   0.930196922
S        0.618645185   0.450050712   0.930234934
S        0.618721137   0.650060830   0.930341281
S        0.618721137   0.849939170   0.930341281
S        0.532356064   0.150213170   0.166556709
S        0.532356064   0.349786830   0.166556709
S        0.535253878   0.549518270   0.166764017
S        0.537002866   0.750000000   0.166812545
S        0.535253878   0.950481730   0.166764017
S        0.825594812   0.050006789   0.065623167
S        0.825176956   0.250000000   0.065513840
S        0.825594812   0.449993211   0.065623167
S        0.826255807   0.649954494   0.065923359
S        0.826255807   0.850045506   0.065923359
S        0.327188452   0.149927726   0.031737448
S        0.327188452   0.350072274   0.031737448
S        0.327571787   0.550186797   0.032068797
S        0.327794126   0.750000000   0.032358928
S        0.327571787   0.949813203   0.032068797
S        0.033849669   0.049936061   0.930311317
S        0.033795652   0.250000000   0.930279834
S        0.033849669   0.450063939   0.930311317
S        0.033925878   0.650071386   0.930408462
S        0.033925878   0.849928614   0.930408462
S        0.116277603   0.150269506   0.165943285
S        0.116277603   0.349730494   0.165943285
S        0.119152079   0.549445762   0.166739976
S        0.121056597   0.750000000   0.167161616
S        0.119152079   0.950554238   0.166739976
C        0.375468809   0.208090740   0.298105078
C        0.375255452   0.458237259   0.297337648
C        0.375032835   0.708236523   0.297286612
C        0.375246524   0.958107844   0.298062505
C        0.875452601   0.208098833   0.297848509
C        0.875234432   0.458238707   0.297041057
C        0.875025979   0.708232829   0.296902328
C        0.875238128   0.958111713   0.297725572
C        0.375255452   0.041762741   0.297337648
C        0.375468809   0.291909260   0.298105078
C        0.375246524   0.541892156   0.298062505
C        0.375032835   0.791763477   0.297286612
C        0.875234432   0.041761293   0.297041057
C        0.875452601   0.291901167   0.297848509
C        0.875238128   0.541888287   0.297725572
C        0.875025979   0.791767171   0.296902328
C        0.125318166   0.083208133   0.297163327
C        0.125308252   0.333194994   0.297744642
C        0.124997247   0.583129063   0.297960748
C        0.125002051   0.833149575   0.297371224
C        0.625362687   0.083208522   0.297141734
C        0.625365872   0.333193091   0.297718642
C        0.625057497   0.583143815   0.297919663
C        0.625050463   0.833162407   0.297336880
C        0.125308252   0.166805006   0.297744642
C        0.125318166   0.416791867   0.297163327
C        0.125002051   0.666850425   0.297371224
C        0.124997247   0.916870937   0.297960748
C        0.625365872   0.166806909   0.297718642
C        0.625362687   0.416791478   0.297141734
C        0.625050463   0.666837593   0.297336880
C        0.625057497   0.916856185   0.297919663



     Writing output data file TiS3.save
     Check: negative starting charge=   -0.023952
     NEW-OLD atomic charge density approx. for the potential

     Check: negative/imaginary core charge=   -0.000006    0.000000
     Check: negative starting charge=   -0.024047

     negative rho (up, down):  3.092E-02 0.000E+00

     total cpu time spent up to now is     9855.4 secs

     per-process dynamical memory:   362.3 Mb

     Self-consistent Calculation

     iteration #  1     ecut=    39.00 Ry     beta=0.30
     Davidson diagonalization with overlap
     ethr =  1.00E-06,  avg # of iterations =  4.8

     negative rho (up, down):  3.087E-02 0.000E+00

     total cpu time spent up to now is    10807.8 secs

     total energy              =   -2323.11500447 Ry
     Harris-Foulkes estimate   =   -2323.11513648 Ry
     estimated scf accuracy    <       0.00046259 Ry

     iteration #  2     ecut=    39.00 Ry     beta=0.30
     Davidson diagonalization with overlap
     ethr =  1.08E-07,  avg # of iterations =  3.5

     negative rho (up, down):  3.084E-02 0.000E+00

     total cpu time spent up to now is    11232.5 secs

     total energy              =   -2323.11499324 Ry
     Harris-Foulkes estimate   =   -2323.11508160 Ry
     estimated scf accuracy    <       0.00040063 Ry

     iteration #  3     ecut=    39.00 Ry     beta=0.30
     Davidson diagonalization with overlap
     ethr =  9.36E-08,  avg # of iterations =  2.0

     negative rho (up, down):  3.082E-02 0.000E+00

     total cpu time spent up to now is    11620.2 secs

     total energy              =   -2323.11501633 Ry
     Harris-Foulkes estimate   =   -2323.11506594 Ry
     estimated scf accuracy    <       0.00022953 Ry

     iteration #  4     ecut=    39.00 Ry     beta=0.30
     Davidson diagonalization with overlap
     ethr =  5.36E-08,  avg # of iterations =  3.4

     negative rho (up, down):  3.081E-02 0.000E+00

     total cpu time spent up to now is    12065.4 secs

     total energy              =   -2323.11504920 Ry
     Harris-Foulkes estimate   =   -2323.11506571 Ry
     estimated scf accuracy    <       0.00009870 Ry

     iteration #  5     ecut=    39.00 Ry     beta=0.30
     Davidson diagonalization with overlap
     ethr =  2.31E-08,  avg # of iterations =  2.9

     negative rho (up, down):  3.081E-02 0.000E+00

     total cpu time spent up to now is    12456.0 secs

     total energy              =   -2323.11505938 Ry
     Harris-Foulkes estimate   =   -2323.11506167 Ry
     estimated scf accuracy    <       0.00001611 Ry

     iteration #  6     ecut=    39.00 Ry     beta=0.30
     Davidson diagonalization with overlap
     ethr =  3.76E-09,  avg # of iterations =  4.0

     negative rho (up, down):  3.080E-02 0.000E+00

     total cpu time spent up to now is    12965.9 secs

     total energy              =   -2323.11506217 Ry
     Harris-Foulkes estimate   =   -2323.11506322 Ry
     estimated scf accuracy    <       0.00000729 Ry

     iteration #  7     ecut=    39.00 Ry     beta=0.30
     Davidson diagonalization with overlap
     ethr =  1.70E-09,  avg # of iterations =  4.0

     negative rho (up, down):  3.080E-02 0.000E+00

     total cpu time spent up to now is    13501.8 secs

     total energy              =   -2323.11506427 Ry
     Harris-Foulkes estimate   =   -2323.11506464 Ry
     estimated scf accuracy    <       0.00000550 Ry

     iteration #  8     ecut=    39.00 Ry     beta=0.30
     Davidson diagonalization with overlap
     ethr =  1.28E-09,  avg # of iterations =  2.2

     negative rho (up, down):  3.081E-02 0.000E+00

     total cpu time spent up to now is    13884.9 secs

     total energy              =   -2323.11506461 Ry
     Harris-Foulkes estimate   =   -2323.11506478 Ry
     estimated scf accuracy    <       0.00000108 Ry

     iteration #  9     ecut=    39.00 Ry     beta=0.30
     Davidson diagonalization with overlap
     ethr =  2.53E-10,  avg # of iterations =  4.0

     negative rho (up, down):  3.081E-02 0.000E+00

     total cpu time spent up to now is    14433.3 secs

     End of self-consistent calculation

          k = 0.0000 0.0000 0.0000 ( 58029 PWs)   bands (ev):

   -56.3443 -56.3410 -56.3287 -56.3280 -56.3189 -56.3110 -56.3069 -56.3062
   -56.3030 -56.3003 -32.7017 -32.6902 -32.6685 -32.6650 -32.6584 -32.6502
   -32.6444 -32.6415 -32.6389 -32.6375 -32.6289 -32.6276 -32.6214 -32.6207
   -32.6125 -32.6108 -32.6103 -32.6094 -32.6031 -32.5773 -32.4358 -32.4308
   -32.4203 -32.4187 -32.4089 -32.3960 -32.3911 -32.3904 -32.3864 -32.3833
   -18.0739 -17.6999 -17.6998 -16.5886 -16.5866 -14.7769 -14.7766 -14.6036
   -14.4807 -14.4346 -14.4336 -14.3278 -14.3271 -14.1498 -14.1478 -14.0595
   -14.0588 -13.8709 -13.8649 -13.5418 -13.5417 -13.5363 -13.5359 -12.9182
   -12.9149 -12.7209 -12.1778 -11.9433 -11.9433 -11.7943 -11.7940 -11.7686
   -11.2958 -11.2937 -10.5915 -10.5911 -10.5725 -10.5720 -10.5672 -10.5666
   -10.3739 -10.3563 -10.3556  -9.5377  -9.4106  -9.3853  -9.3803  -9.2561
    -9.2551  -9.1817  -9.1814  -9.0996  -9.0992  -9.0613  -9.0561  -8.9763
    -8.9762  -7.5118  -7.5100  -6.2656  -5.9672  -5.9666  -5.9646  -5.9643
    -5.9025  -5.9015  -5.8355  -5.8348  -5.3222  -5.2366  -5.1521  -5.1502
    -5.1197  -5.0561  -5.0554  -5.0000  -4.9998  -4.9527  -4.9517  -4.8682
    -4.8679  -4.7860  -4.7859  -4.5604  -4.5593  -4.3782  -4.3750  -4.3644
    -4.2472  -4.2400  -4.0397  -4.0377  -3.8447  -3.8432  -3.8323  -3.5019
    -3.5017  -3.4921  -3.4914  -3.3612  -3.3611  -3.3419  -3.1969  -3.1966
    -3.1836  -3.1787  -2.9296  -2.9275  -2.8534  -2.8446  -2.5637  -2.5586
    -2.5157  -2.5145  -2.4188  -2.4160  -2.3082  -2.2232  -2.2161  -2.2079
    -2.1191  -2.1167  -1.9220  -1.9199  -1.8028  -1.7020  -1.7012  -1.5849
    -1.5662  -1.4445  -1.3653  -1.3340  -1.3054  -1.2907  -1.2827  -1.1890
    -1.1822  -1.1532  -1.1517  -1.1152  -1.1139  -1.0912  -1.0892  -1.0844
    -1.0819  -0.9438  -0.9361  -0.9116  -0.8281  -0.6663  -0.5982  -0.5316
    -0.3226  -0.3225  -0.2834  -0.2815  -0.1582  -0.0737  -0.0702  -0.0700
    -0.0276  -0.0181  -0.0129   0.0216   0.0222   0.0752   0.0756   0.1408
     0.4443   0.4443   0.5737   0.7154   0.9986   0.9990   1.3423   1.6802
     2.0680   2.0683   2.3969   2.3984   2.7694   2.7771   2.8241   2.8276
     2.9192   2.9279   3.0231   3.0306   3.0477   3.0557   3.0779   3.0873
     3.1417   3.1634   3.1641   3.2775   3.3062   3.3065   3.3454   3.3717
     3.3731   3.4928   3.5255   3.5516   3.6004   3.6417   3.6725   3.6848
     3.6931   3.6965   3.7449   3.7517   3.7551   3.7993   3.8046   3.8072
     3.8253

          k = 0.0000-0.0296 0.0000 ( 58052 PWs)   bands (ev):

   -56.3443 -56.3410 -56.3286 -56.3280 -56.3189 -56.3110 -56.3073 -56.3056
   -56.3032 -56.3002 -32.7066 -32.6761 -32.6716 -32.6695 -32.6582 -32.6507
   -32.6435 -32.6435 -32.6405 -32.6377 -32.6287 -32.6273 -32.6241 -32.6198
   -32.6158 -32.6145 -32.6089 -32.6076 -32.5883 -32.5852 -32.4357 -32.4308
   -32.4201 -32.4189 -32.4089 -32.3959 -32.3921 -32.3890 -32.3871 -32.3832
   -17.9830 -17.9774 -17.2352 -17.2339 -15.7768 -15.7524 -14.5602 -14.5538
   -14.4397 -14.4388 -14.2821 -14.2813 -14.1824 -14.1822 -14.1011 -14.0109
   -13.7916 -13.7842 -13.7815 -13.7777 -13.6455 -13.6390 -13.1787 -13.1764
   -13.1729 -13.1668 -12.1196 -12.1178 -11.6600 -11.6596 -11.3973 -11.3867
   -11.3764 -11.3716 -10.9099 -10.9071 -10.7105 -10.7094 -10.4108 -10.4103
   -10.3657 -10.3614  -9.6570  -9.6508  -9.6503  -9.6413  -9.4998  -9.4907
    -9.3699  -9.3679  -9.2289  -9.2283  -9.1061  -9.1061  -9.0472  -8.9242
    -7.5559  -7.5503  -6.9068  -6.9055  -6.9014  -6.9010  -6.1586  -6.1555
    -5.3532  -5.3514  -5.2755  -5.2691  -5.2418  -5.2334  -5.2291  -5.2234
    -5.1471  -5.1397  -5.1097  -5.1091  -5.0237  -5.0232  -4.8896  -4.8890
    -4.8425  -4.7013  -4.6758  -4.5138  -4.4324  -4.4183  -4.3244  -4.2995
    -4.2868  -4.2823  -3.9582  -3.9564  -3.8699  -3.7490  -3.7489  -3.7319
    -3.7297  -3.6849  -3.6839  -3.3967  -3.3469  -3.3285  -3.3279  -3.1927
    -3.1610  -3.1004  -3.0998  -3.0851  -3.0841  -3.0615  -2.5674  -2.5552
    -2.4129  -2.4108  -2.2532  -2.2342  -2.2325  -2.1857  -2.0078  -1.9958
    -1.9507  -1.9472  -1.9291  -1.9175  -1.9169  -1.9039  -1.5987  -1.5974
    -1.4513  -1.4075  -1.3825  -1.3546  -1.3509  -1.3105  -1.2976  -1.2957
    -1.2416  -1.2403  -1.2282  -1.2214  -1.1546  -1.1254  -0.9993  -0.9789
    -0.8576  -0.8565  -0.8294  -0.8271  -0.8173  -0.8076  -0.6535  -0.6517
    -0.5817  -0.5747  -0.4310  -0.4261  -0.1565  -0.0619  -0.0606  -0.0562
    -0.0354  -0.0195   0.1000   0.1024   0.1102   0.1156   0.3413   0.3490
     0.4718   0.4736   0.5181   0.5199   0.8563   0.8572   1.6079   1.6129
     2.0130   2.0175   2.4893   2.4908   2.6821   2.6832   2.8387   2.8661
     2.9474   2.9476   2.9854   3.0251   3.0569   3.0681   3.0976   3.0987
     3.1613   3.1922   3.2960   3.3411   3.3950   3.3999   3.4122   3.4185
     3.4356   3.4390   3.4944   3.4982   3.5292   3.5399   3.5406   3.5599
     3.6861   3.7281   3.7323   3.8060   3.8094   3.8111   3.9122   3.9130
     3.9592

          k = 0.0337 0.0000 0.0000 ( 58063 PWs)   bands (ev):

   -56.3443 -56.3410 -56.3287 -56.3280 -56.3189 -56.3110 -56.3069 -56.3062
   -56.3030 -56.3003 -32.7016 -32.6901 -32.6684 -32.6649 -32.6582 -32.6501
   -32.6441 -32.6414 -32.6388 -32.6374 -32.6288 -32.6279 -32.6216 -32.6210
   -32.6126 -32.6109 -32.6104 -32.6094 -32.6030 -32.5773 -32.4360 -32.4312
   -32.4206 -32.4191 -32.4093 -32.3965 -32.3916 -32.3908 -32.3868 -32.3837
   -17.9529 -17.5793 -17.5792 -16.4700 -16.4680 -15.1116 -14.7556 -14.7555
   -14.6634 -14.6631 -14.5357 -14.4199 -14.3703 -14.3695 -14.2688 -14.2680
   -14.0953 -14.0931 -14.0050 -14.0043 -13.7246 -13.7218 -12.6177 -12.5004
   -12.4946 -12.4920 -12.0892 -11.8583 -11.8583 -11.6694 -11.3931 -11.3928
   -11.2343 -11.2323 -10.8032 -10.8021 -10.6159 -10.6158 -10.6066 -10.5245
   -10.5241 -10.1647  -9.8414  -9.6929  -9.6925  -9.6890  -9.5590  -9.5582
    -9.4350  -9.4345  -9.3047  -9.3047  -9.2190  -9.2183  -9.1149  -9.1144
    -8.5369  -7.7831  -6.7490  -6.7486  -6.2964  -6.1088  -5.9448  -5.9433
    -5.7378  -5.6756  -5.6753  -5.3592  -5.3588  -5.1266  -5.1256  -4.9912
    -4.9911  -4.7758  -4.6689  -4.6580  -4.6580  -4.6449  -4.6435  -4.5056
    -4.5053  -4.4037  -4.4021  -4.2844  -4.2760  -4.2750  -4.2539  -4.2509
    -4.2243  -4.2139  -4.0489  -4.0467  -3.9634  -3.9615  -3.4620  -3.4611
    -3.3861  -3.3779  -3.3777  -3.3419  -3.3405  -3.3350  -3.3077  -3.3074
    -3.2265  -3.2263  -3.0728  -3.0672  -2.9191  -2.9163  -2.8179  -2.8107
    -2.7126  -2.7049  -2.7031  -2.4168  -2.4147  -2.3752  -2.3744  -2.2784
    -2.2653  -2.1730  -2.1646  -2.1613  -1.9050  -1.8949  -1.8537  -1.8071
    -1.8068  -1.7589  -1.7564  -1.7153  -1.7123  -1.6578  -1.4991  -1.4462
    -1.2713  -1.2556  -1.1919  -1.1862  -0.9818  -0.9815  -0.8927  -0.8923
    -0.8852  -0.7626  -0.7152  -0.6289  -0.5420  -0.4879  -0.4714  -0.4264
    -0.4236  -0.2508  -0.2330  -0.2173  -0.1832  -0.1796  -0.1704  -0.1677
    -0.1308  -0.1221  -0.0388  -0.0312  -0.0225  -0.0002   0.0037   0.2679
     0.3535   0.3908   0.3932   0.5834   0.6801   0.9929   1.4365   1.6979
     2.1494   2.1498   2.3866   2.3869   2.7399   2.7441   2.8209   2.8513
     2.8513   2.8582   2.9119   2.9184   2.9271   2.9296   2.9532   2.9631
     2.9653   3.0627   3.0659   3.1520   3.1721   3.2107   3.2579   3.2585
     3.2678   3.3099   3.3125   3.3194   3.4801   3.4980   3.5172   3.5596
     3.5683   3.5741   3.7454   3.7502   3.7752   3.8179   3.8437   3.8741
     4.0400

          k = 0.0337-0.0296 0.0000 ( 57978 PWs)   bands (ev):

   -56.3443 -56.3410 -56.3286 -56.3280 -56.3189 -56.3110 -56.3073 -56.3056
   -56.3032 -56.3002 -32.7065 -32.6760 -32.6715 -32.6694 -32.6580 -32.6505
   -32.6432 -32.6431 -32.6406 -32.6379 -32.6287 -32.6276 -32.6243 -32.6199
   -32.6159 -32.6147 -32.6089 -32.6076 -32.5883 -32.5852 -32.4360 -32.4312
   -32.4204 -32.4192 -32.4092 -32.3964 -32.3925 -32.3894 -32.3875 -32.3836
   -17.8621 -17.8565 -17.1153 -17.1140 -15.6601 -15.6357 -15.0248 -15.0192
   -14.4934 -14.4869 -14.3793 -14.3783 -14.3227 -14.3216 -14.2171 -14.2163
   -14.1255 -14.1253 -14.0470 -13.9574 -13.5368 -13.5303 -13.0422 -13.0205
   -12.4591 -12.4544 -12.0316 -12.0301 -11.5824 -11.5820 -11.3247 -11.3232
   -10.8802 -10.8780 -10.7329 -10.7261 -10.6220 -10.6210 -10.5824 -10.5780
   -10.5075 -10.5072 -10.0895 -10.0658  -9.8044  -9.7968  -9.6563  -9.6542
    -9.5536  -9.5528  -9.4256  -9.4255  -9.3821  -9.2553  -8.3302  -8.3218
    -7.8648  -7.8635  -7.5280  -7.5219  -6.0014  -5.9981  -5.8063  -5.8056
    -5.7133  -5.7055  -5.6459  -5.6386  -5.1611  -5.1588  -4.9042  -4.8908
    -4.7958  -4.7807  -4.7382  -4.7314  -4.6348  -4.6243  -4.6230  -4.5497
    -4.5495  -4.5068  -4.4811  -4.4738  -4.3513  -4.3513  -4.2602  -4.2053
    -4.2017  -4.1118  -3.8938  -3.8927  -3.7839  -3.6351  -3.6340  -3.5860
    -3.5858  -3.5338  -3.5032  -3.4153  -3.3697  -3.3689  -3.3110  -3.3106
    -3.2624  -3.2127  -3.2125  -3.1217  -3.0791  -3.0777  -2.6470  -2.6393
    -2.5728  -2.5642  -2.5114  -2.5090  -2.4962  -2.4364  -2.3725  -2.3702
    -2.0746  -2.0743  -2.0514  -2.0409  -2.0328  -1.9938  -1.9823  -1.9754
    -1.8649  -1.8636  -1.6748  -1.6732  -1.5323  -1.5321  -1.4427  -1.3297
    -1.2496  -1.2466  -1.1648  -1.1547  -0.9485  -0.9418  -0.9309  -0.8131
    -0.7638  -0.7630  -0.7404  -0.7350  -0.6542  -0.6454  -0.6391  -0.6372
    -0.3073  -0.3041  -0.2473  -0.2140  -0.2008  -0.1703  -0.1492  -0.1453
    -0.1343  -0.1238  -0.0516  -0.0494  -0.0145  -0.0140   0.1737   0.1810
     0.4146   0.4206   0.5345   0.5389   0.7025   0.7034   1.7042   1.7094
     1.9966   2.0012   2.5411   2.5427   2.6932   2.6943   2.8079   2.8236
     2.8353   2.8377   2.8662   2.8693   2.9679   2.9748   2.9928   3.0253
     3.0302   3.0348   3.1203   3.1213   3.1759   3.1955   3.2802   3.2914
     3.2988   3.3064   3.4047   3.4117   3.4255   3.4302   3.5042   3.5370
     3.6269   3.6316   3.8082   3.8096   3.8484   3.8602   3.9538   3.9540
     3.9954

          k = 0.0674 0.0000 0.0000 ( 57942 PWs)   bands (ev):

   -56.3443 -56.3410 -56.3287 -56.3280 -56.3189 -56.3110 -56.3069 -56.3062
   -56.3030 -56.3003 -32.7015 -32.6900 -32.6681 -32.6647 -32.6576 -32.6498
   -32.6436 -32.6413 -32.6385 -32.6371 -32.6286 -32.6285 -32.6221 -32.6216
   -32.6127 -32.6110 -32.6106 -32.6095 -32.6030 -32.5773 -32.4367 -32.4318
   -32.4212 -32.4197 -32.4099 -32.3974 -32.3925 -32.3917 -32.3876 -32.3845
   -17.5907 -17.2188 -17.2186 -16.1602 -16.1154 -16.1134 -15.7954 -15.7953
   -14.7218 -14.7199 -14.3875 -14.3254 -14.3252 -14.2860 -14.2329 -14.2322
   -14.1384 -14.1376 -13.9689 -13.9673 -13.8856 -13.8849 -13.0207 -13.0200
   -12.3087 -11.8533 -11.6318 -11.6317 -11.3901 -11.2758 -11.1062 -11.0789
   -11.0769 -11.0751 -10.9329 -10.9329 -10.7123 -10.7116 -10.3611 -10.3554
   -10.3507 -10.2021 -10.2000 -10.1600 -10.0464 -10.0460  -9.9771  -9.9757
    -9.8432  -9.8426  -9.2784  -9.2763  -9.0974  -8.9643  -8.9637  -7.6949
    -7.6941  -7.3759  -7.3756  -6.9689  -6.5267  -6.5262  -6.3810  -6.3790
    -6.3648  -5.6710  -5.2412  -5.2412  -5.0886  -5.0875  -5.0128  -5.0116
    -5.0005  -4.5354  -4.5345  -4.4718  -4.4663  -4.3129  -4.3116  -4.3094
    -4.2035  -4.2015  -4.0052  -4.0044  -3.9810  -3.9786  -3.9697  -3.6466
    -3.6464  -3.5625  -3.5526  -3.5515  -3.4359  -3.4183  -3.4179  -3.4166
    -3.3738  -3.3733  -3.3643  -3.3635  -3.2231  -3.0677  -3.0662  -3.0614
    -3.0599  -3.0013  -2.9995  -2.9794  -2.9767  -2.9366  -2.9365  -2.8673
    -2.8658  -2.8310  -2.8225  -2.7195  -2.7187  -2.6315  -2.5993  -2.5965
    -2.3868  -2.2805  -2.2765  -2.2429  -2.2298  -2.1986  -2.0986  -2.0910
    -2.0877  -1.8753  -1.8711  -1.8523  -1.7710  -1.7678  -1.7375  -1.7360
    -1.4119  -1.4064  -1.1903  -1.1863  -1.1533  -1.1209  -1.1169  -0.7851
    -0.7823  -0.7283  -0.6806  -0.6712  -0.5427  -0.5373  -0.4927  -0.4923
    -0.4887  -0.4617  -0.4564  -0.3580  -0.3552  -0.3028  -0.3013  -0.2731
    -0.1902  -0.1872  -0.1385  -0.0906  -0.0776  -0.0660  -0.0631  -0.0283
     0.0320   0.1530   0.1536   0.6506   0.8604   1.4502   1.5685   1.5854
     1.7242   2.2695   2.2710   2.3252   2.3625   2.3640   2.6820   2.6841
     2.7101   2.7125   2.7251   2.7938   2.7980   2.8570   2.8588   2.8958
     2.9038   2.9079   2.9227   2.9389   2.9396   2.9698   3.0124   3.0145
     3.0430   3.0430   3.0772   3.1625   3.1719   3.3344   3.4058   3.4157
     3.4530   3.4854   3.4894   3.5848   3.5889   3.6552   3.8836   3.8838
     3.9373

          k = 0.0674-0.0296 0.0000 ( 57938 PWs)   bands (ev):

   -56.3443 -56.3410 -56.3286 -56.3280 -56.3189 -56.3110 -56.3073 -56.3056
   -56.3032 -56.3002 -32.7064 -32.6758 -32.6714 -32.6692 -32.6574 -32.6499
   -32.6425 -32.6424 -32.6410 -32.6382 -32.6286 -32.6280 -32.6247 -32.6201
   -32.6163 -32.6152 -32.6090 -32.6076 -32.5883 -32.5852 -32.4366 -32.4318
   -32.4210 -32.4199 -32.4099 -32.3973 -32.3935 -32.3902 -32.3884 -32.3843
   -17.5003 -17.4947 -16.7569 -16.7558 -16.0715 -16.0659 -15.3442 -15.3433
   -15.3116 -15.2869 -14.3481 -14.3418 -14.2464 -14.2450 -14.0922 -14.0913
   -14.0004 -14.0002 -13.9801 -13.9255 -13.8944 -13.8405 -13.2131 -13.2065
   -12.0406 -12.0355 -11.7967 -11.7967 -11.3765 -11.3762 -11.0616 -11.0568
   -10.8189 -10.8179 -10.7828 -10.7828 -10.7066 -10.7040 -10.3801 -10.3800
   -10.3137 -10.3108 -10.1301 -10.1274 -10.0748 -10.0737  -9.9408  -9.9395
    -9.9394  -9.8864  -9.8834  -9.8040  -8.5468  -8.5311  -8.5249  -8.5200
    -7.5751  -7.5686  -6.8641  -6.8569  -6.8547  -6.8459  -6.1481  -6.1439
    -5.9341  -5.9229  -5.5643  -5.5606  -5.4209  -5.3943  -4.7270  -4.7249
    -4.6604  -4.6598  -4.5716  -4.4513  -4.4364  -4.4175  -4.2246  -4.2196
    -4.0603  -4.0598  -3.9469  -3.9219  -3.8814  -3.8747  -3.7884  -3.7794
    -3.6739  -3.6715  -3.6274  -3.5798  -3.5120  -3.5077  -3.4166  -3.4138
    -3.3788  -3.3780  -3.3638  -3.3637  -3.2965  -3.2151  -3.2144  -3.1772
    -3.1718  -3.0204  -3.0192  -2.9309  -2.9256  -2.8825  -2.8751  -2.8750
    -2.8732  -2.8537  -2.6627  -2.6602  -2.6437  -2.5520  -2.5518  -2.4884
    -2.4127  -2.4009  -2.3682  -2.3146  -2.3120  -2.2946  -2.2945  -2.2565
    -2.0515  -2.0515  -1.7896  -1.7873  -1.6758  -1.6757  -1.5170  -1.4753
    -1.2018  -1.2001  -1.1993  -1.1870  -1.0880  -1.0862  -0.9482  -0.9462
    -0.8350  -0.8335  -0.7878  -0.7851  -0.7667  -0.7584  -0.5538  -0.5293
    -0.4811  -0.4799  -0.4170  -0.4158  -0.3326  -0.3305  -0.3254  -0.3239
    -0.2662  -0.2636  -0.1367  -0.1350  -0.0409  -0.0402   0.1740   0.1746
     0.3481   0.3513   0.5187   0.5189   0.5269   0.5270   1.8493   1.8531
     1.9770   1.9820   2.4036   2.4278   2.5092   2.5494   2.6328   2.6344
     2.6840   2.6848   2.6970   2.6979   2.7637   2.7799   2.7875   2.7949
     2.8699   2.8705   2.9507   2.9535   2.9754   2.9993   3.0035   3.0045
     3.0211   3.0496   3.0799   3.0808   3.3036   3.3147   3.3890   3.4148
     3.5621   3.6096   3.6761   3.7152   3.7540   3.7561   3.8280   3.8281
     3.9176

          k =-0.1011 0.0000 0.0000 ( 57974 PWs)   bands (ev):

   -56.3443 -56.3410 -56.3287 -56.3280 -56.3189 -56.3110 -56.3069 -56.3062
   -56.3030 -56.3003 -32.7014 -32.6899 -32.6679 -32.6646 -32.6574 -32.6497
   -32.6434 -32.6412 -32.6383 -32.6370 -32.6289 -32.6285 -32.6224 -32.6219
   -32.6128 -32.6111 -32.6108 -32.6096 -32.6030 -32.5773 -32.4370 -32.4322
   -32.4215 -32.4201 -32.4103 -32.3979 -32.3930 -32.3922 -32.3880 -32.3849
   -16.9944 -16.9873 -16.6252 -16.6251 -16.6182 -16.6180 -15.5321 -15.5314
   -15.5261 -15.5229 -14.3023 -14.2112 -14.1548 -14.1542 -14.0654 -14.0646
   -13.9212 -13.9185 -13.8194 -13.8187 -13.7617 -13.7611 -13.7511 -13.7498
   -11.7965 -11.7935 -11.5570 -11.5167 -11.3445 -11.3440 -11.3101 -11.3094
   -11.0469 -11.0442 -10.8930 -10.8910 -10.8811 -10.8761 -10.5444 -10.4280
   -10.4085 -10.4045 -10.2885 -10.2877 -10.2085 -10.2072 -10.0758 -10.0749
    -9.1535  -9.1532  -9.1522  -9.1517  -8.3933  -8.3922  -7.6883  -7.6866
    -7.6862  -7.6854  -7.5207  -7.5206  -7.5200  -7.5198  -6.0852  -6.0843
    -6.0838  -6.0829  -5.1723  -5.1719  -5.1714  -5.1690  -5.0317  -4.8907
    -4.8683  -4.8664  -4.6218  -4.6215  -4.4651  -4.4650  -4.3752  -4.3656
    -4.2783  -4.2773  -3.8128  -3.7488  -3.7315  -3.7310  -3.6196  -3.6171
    -3.6050  -3.6039  -3.6037  -3.6014  -3.5146  -3.5145  -3.4663  -3.4621
    -3.4614  -3.4577  -3.2689  -3.2618  -3.1795  -3.1730  -3.1114  -3.1092
    -3.0582  -3.0573  -2.7901  -2.7877  -2.7849  -2.6972  -2.6567  -2.6542
    -2.5414  -2.5400  -2.5096  -2.5088  -2.4615  -2.4533  -2.4049  -2.3985
    -2.2378  -2.2358  -2.1599  -2.1595  -2.1558  -2.0813  -2.0796  -2.0589
    -2.0224  -2.0223  -1.7120  -1.6749  -1.6513  -1.6467  -1.6241  -1.6159
    -1.2906  -1.2893  -1.2546  -1.2339  -1.2069  -1.2068  -1.0782  -1.0753
    -1.0050  -1.0043  -0.7205  -0.7178  -0.6678  -0.6677  -0.6562  -0.6494
    -0.5974  -0.5955  -0.4680  -0.4379  -0.3082  -0.3050  -0.2940  -0.2838
    -0.2823  -0.2680  -0.2229  -0.2151  -0.1792  -0.1422  -0.1164  -0.1144
    -0.0786  -0.0758   0.5597   0.5867   0.6688   0.7388   1.6094   1.6295
     1.9765   1.9854   2.0041   2.0933   2.0994   2.1076   2.1746   2.1800
     2.3105   2.3112   2.4129   2.4240   2.4356   2.4483   2.4630   2.4789
     2.8553   2.8603   2.8869   2.8890   2.9544   2.9605   2.9625   2.9651
     2.9788   2.9839   2.9853   3.0076   3.0103   3.0470   3.3190   3.3347
     3.3371   3.3676   3.3722   3.3749   3.9173   3.9206   3.9509   3.9518
     3.9678

          k =-0.1011-0.0296 0.0000 ( 57984 PWs)   bands (ev):

   -56.3443 -56.3410 -56.3286 -56.3280 -56.3189 -56.3110 -56.3073 -56.3056
   -56.3032 -56.3002 -32.7064 -32.6757 -32.6713 -32.6692 -32.6571 -32.6496
   -32.6420 -32.6420 -32.6413 -32.6385 -32.6286 -32.6283 -32.6249 -32.6202
   -32.6165 -32.6155 -32.6090 -32.6076 -32.5883 -32.5851 -32.4370 -32.4322
   -32.4214 -32.4203 -32.4103 -32.3978 -32.3940 -32.3907 -32.3888 -32.3848
   -16.9047 -16.8992 -16.8977 -16.8920 -16.1675 -16.1662 -16.1601 -16.1594
   -14.7433 -14.7308 -14.7136 -14.7095 -14.2649 -14.2586 -14.1720 -14.1704
   -14.0196 -14.0186 -13.9307 -13.9304 -13.8559 -13.7758 -12.6876 -12.6847
   -12.6810 -12.6782 -11.5042 -11.4989 -11.4628 -11.4624 -11.1176 -11.1174
   -11.0915 -11.0911 -10.7868 -10.7864 -10.5113 -10.5041 -10.3916 -10.3874
   -10.2893 -10.2881 -10.1862 -10.1652 -10.1650 -10.1513 -10.1500 -10.1476
   -10.1456 -10.0470  -8.3987  -8.3982  -8.3979  -8.3973  -8.2003  -8.1997
    -8.1938  -8.1929  -6.9257  -6.9245  -6.9003  -6.8990  -6.3969  -6.3949
    -6.3949  -6.3934  -5.2983  -5.2968  -5.2894  -5.2877  -4.9285  -4.9266
    -4.7866  -4.7805  -4.5802  -4.4893  -4.1803  -4.1721  -4.1548  -4.1518
    -4.1493  -4.1440  -3.9518  -3.9509  -3.8019  -3.8002  -3.7280  -3.7270
    -3.7229  -3.7223  -3.6671  -3.6555  -3.5709  -3.5707  -3.5697  -3.5689
    -3.5357  -3.5042  -3.2837  -3.2832  -3.1817  -3.1799  -3.0945  -2.8481
    -2.8476  -2.8286  -2.8284  -2.8240  -2.8205  -2.8116  -2.7334  -2.7321
    -2.6190  -2.5911  -2.3627  -2.3528  -2.3517  -2.2902  -2.2815  -2.2748
    -2.2739  -2.2269  -2.2204  -2.1846  -2.1844  -2.0580  -1.9815  -1.9813
    -1.9595  -1.9233  -1.9187  -1.9095  -1.6621  -1.6573  -1.6510  -1.6495
    -1.5498  -1.5480  -1.5450  -1.5404  -1.0300  -1.0232  -1.0059  -1.0048
    -0.9676  -0.9675  -0.7532  -0.7336  -0.5749  -0.5749  -0.5082  -0.5045
    -0.4809  -0.4753  -0.4611  -0.4596  -0.3421  -0.3299  -0.2350  -0.2336
    -0.2313  -0.2302  -0.1777  -0.1741  -0.1558  -0.1494  -0.0845  -0.0768
    -0.0177  -0.0174   0.3261   0.3315   0.3943   0.3976   1.7990   1.8049
     1.8514   1.8529   2.1008   2.1025   2.1314   2.1351   2.1995   2.1997
     2.2046   2.2359   2.2360   2.3308   2.7188   2.7215   2.7322   2.7330
     2.8788   2.8900   2.8935   2.9146   2.9373   2.9385   2.9678   3.0165
     3.0167   3.0539   3.0788   3.0852   3.1131   3.1245   3.1470   3.1907
     3.2569   3.2597   3.2731   3.2733   3.6516   3.6542   3.6837   3.6849
     3.9100

     the Fermi energy is     1.3137 ev

!    total energy              =   -2323.11506475 Ry
     Harris-Foulkes estimate   =   -2323.11506494 Ry
     estimated scf accuracy    <       0.00000051 Ry

     The total energy is the sum of the following terms:

     one-electron contribution =  -18126.49081014 Ry
     hartree contribution      =    9145.16366534 Ry
     xc contribution           =    -590.37312004 Ry
     ewald contribution        =    7248.59425235 Ry
     smearing contrib. (-TS)   =      -0.00905225 Ry

     convergence has been achieved in   9 iterations

     Forces acting on atoms (Ry/au):


     negative rho (up, down):  3.081E-02 0.000E+00
     atom    1 type  1   force =    -0.00441207   -0.00014278   -0.00813766
     atom    2 type  1   force =    -0.00457734    0.00000000   -0.00843604
     atom    3 type  1   force =    -0.00441207    0.00014278   -0.00813766
     atom    4 type  1   force =    -0.00439580   -0.00003026   -0.00831455
     atom    5 type  1   force =    -0.00439580    0.00003026   -0.00831455
     atom    6 type  1   force =     0.00393180   -0.00000101    0.00379331
     atom    7 type  1   force =     0.00393180    0.00000101    0.00379331
     atom    8 type  1   force =     0.00402502   -0.00000526    0.00426732
     atom    9 type  1   force =     0.00405219    0.00000000    0.00445676
     atom   10 type  1   force =     0.00402502    0.00000526    0.00426732
     atom   11 type  2   force =    -0.00142831   -0.00028092    0.00108808
     atom   12 type  2   force =    -0.00148331    0.00000000    0.00081219
     atom   13 type  2   force =    -0.00142831    0.00028092    0.00108808
     atom   14 type  2   force =    -0.00134753    0.00018632    0.00150518
     atom   15 type  2   force =    -0.00134753   -0.00018632    0.00150518
     atom   16 type  2   force =     0.00147063   -0.00001733   -0.00554899
     atom   17 type  2   force =     0.00147063    0.00001733   -0.00554899
     atom   18 type  2   force =     0.00145437    0.00015480   -0.00606289
     atom   19 type  2   force =     0.00145441    0.00000000   -0.00615466
     atom   20 type  2   force =     0.00145437   -0.00015480   -0.00606289
     atom   21 type  2   force =     0.00218424    0.00010356    0.00153285
     atom   22 type  2   force =     0.00218538    0.00000000    0.00143149
     atom   23 type  2   force =     0.00218424   -0.00010356    0.00153285
     atom   24 type  2   force =     0.00221534   -0.00004312    0.00136240
     atom   25 type  2   force =     0.00221534    0.00004312    0.00136240
     atom   26 type  2   force =    -0.00227360   -0.00002539   -0.00469145
     atom   27 type  2   force =    -0.00227360    0.00002539   -0.00469145
     atom   28 type  2   force =    -0.00220716   -0.00006940   -0.00482282
     atom   29 type  2   force =    -0.00212821    0.00000000   -0.00498042
     atom   30 type  2   force =    -0.00220716    0.00006940   -0.00482282
     atom   31 type  2   force =    -0.00048046   -0.00027596    0.00272559
     atom   32 type  2   force =    -0.00048044    0.00000000    0.00248030
     atom   33 type  2   force =    -0.00048046    0.00027596    0.00272559
     atom   34 type  2   force =    -0.00045711    0.00016009    0.00309005
     atom   35 type  2   force =    -0.00045711   -0.00016009    0.00309005
     atom   36 type  2   force =     0.00079280   -0.00011820   -0.00743498
     atom   37 type  2   force =     0.00079280    0.00011820   -0.00743498
     atom   38 type  2   force =     0.00076515    0.00029095   -0.00757141
     atom   39 type  2   force =     0.00070490    0.00000000   -0.00746428
     atom   40 type  2   force =     0.00076515   -0.00029095   -0.00757141
     atom   41 type  3   force =    -0.00145806    0.01047663    0.00146526
     atom   42 type  3   force =     0.00033123    0.00290528    0.00272011
     atom   43 type  3   force =    -0.00035957    0.00036820    0.00286801
     atom   44 type  3   force =    -0.00207728    0.00740510    0.00162228
     atom   45 type  3   force =    -0.00140557    0.01030113    0.00214400
[...]
   -10.1502 -10.1173  -8.3931  -8.3922  -8.3920  -8.3919  -8.1816  -8.1809
    -8.1757  -8.1753  -6.9081  -6.9071  -6.8941  -6.8931  -6.3883  -6.3881
    -6.3876  -6.3862  -5.2768  -5.2758  -5.2674  -5.2658  -4.8494  -4.8483
    -4.7620  -4.7585  -4.5875  -4.5335  -4.1708  -4.1693  -4.1575  -4.1566
    -4.0468  -4.0428  -3.9224  -3.9221  -3.8171  -3.8145  -3.7628  -3.7619
    -3.7618  -3.7588  -3.7317  -3.7292  -3.5849  -3.5844  -3.5810  -3.5798
    -3.5553  -3.5116  -3.2930  -3.2922  -3.2523  -3.2499  -2.9674  -2.9128
    -2.9119  -2.8881  -2.8879  -2.8539  -2.8102  -2.8095  -2.7596  -2.7549
    -2.6954  -2.5455  -2.3576  -2.3494  -2.3126  -2.3077  -2.3031  -2.2584
    -2.2450  -2.2324  -2.2250  -2.1756  -2.1746  -2.0386  -1.9900  -1.9867
    -1.9861  -1.9728  -1.9728  -1.9410  -1.6976  -1.6937  -1.6717  -1.6703
    -1.5788  -1.5782  -1.5619  -1.5591  -1.0158  -1.0079  -0.9963  -0.9959
    -0.9815  -0.9808  -0.8219  -0.8144  -0.5874  -0.5874  -0.5766  -0.5751
    -0.5461  -0.5453  -0.4722  -0.4713  -0.4221  -0.4174  -0.3232  -0.3231
    -0.3032  -0.3022  -0.1887  -0.1873  -0.1660  -0.1654  -0.0866  -0.0798
    -0.0456  -0.0426   0.3150   0.3210   0.3530   0.3622   1.7913   1.7962
     1.8130   1.8163   2.0653   2.0657   2.1280   2.1323   2.1393   2.1405
     2.1520   2.1574   2.1585   2.2252   2.7184   2.7196   2.7430   2.7435
     2.8422   2.8792   2.8795   2.8943   2.9148   2.9148   2.9895   3.0065
     3.0160   3.0388   3.0591   3.0625   3.1191   3.1276   3.1377   3.1641
     3.2292   3.2432   3.2563   3.2606   3.6333   3.6338   3.6693   3.6693
     3.8959

     the Fermi energy is     1.3094 ev

!    total energy              =   -2323.13441097 Ry
     Harris-Foulkes estimate   =   -2323.13441077 Ry
     estimated scf accuracy    <       0.00000007 Ry

     The total energy is the sum of the following terms:

     one-electron contribution =  -17793.30206450 Ry
     hartree contribution      =    8978.46851679 Ry
     xc contribution           =    -590.44997583 Ry
     ewald contribution        =    7082.15733116 Ry
     smearing contrib. (-TS)   =      -0.00821859 Ry

     convergence has been achieved in  13 iterations

     Forces acting on atoms (Ry/au):


     negative rho (up, down):  3.186E-02 0.000E+00
     atom    1 type  1   force =    -0.00173973   -0.00016759    0.00425900
     atom    2 type  1   force =    -0.00179697    0.00000000    0.00414918
     atom    3 type  1   force =    -0.00173973    0.00016759    0.00425900
     atom    4 type  1   force =    -0.00207243    0.00012820    0.00442858
     atom    5 type  1   force =    -0.00207243   -0.00012820    0.00442858
     atom    6 type  1   force =     0.00400238    0.00009194   -0.00460193
     atom    7 type  1   force =     0.00400238   -0.00009194   -0.00460193
     atom    8 type  1   force =     0.00358963   -0.00018133   -0.00658506
     atom    9 type  1   force =     0.00330194    0.00000000   -0.00760704
     atom   10 type  1   force =     0.00358963    0.00018133   -0.00658506
     atom   11 type  2   force =     0.00691616    0.00003518   -0.00412445
     atom   12 type  2   force =     0.00691109    0.00000000   -0.00423006
     atom   13 type  2   force =     0.00691616   -0.00003518   -0.00412445
     atom   14 type  2   force =     0.00696720    0.00009269   -0.00412454
     atom   15 type  2   force =     0.00696720   -0.00009269   -0.00412454
     atom   16 type  2   force =    -0.00609570   -0.00000423    0.00039829
     atom   17 type  2   force =    -0.00609570    0.00000423    0.00039829
     atom   18 type  2   force =    -0.00549412   -0.00009263    0.00086146
     atom   19 type  2   force =    -0.00567406    0.00000000    0.00081428
     atom   20 type  2   force =    -0.00549412    0.00009263    0.00086146
     atom   21 type  2   force =     0.00183720    0.00011819    0.00713121
     atom   22 type  2   force =     0.00172697    0.00000000    0.00667936
     atom   23 type  2   force =     0.00183720   -0.00011819    0.00713121
     atom   24 type  2   force =     0.00184130   -0.00017234    0.00748414
     atom   25 type  2   force =     0.00184130    0.00017234    0.00748414
     atom   26 type  2   force =    -0.00269113   -0.00025946   -0.00609454
     atom   27 type  2   force =    -0.00269113    0.00025946   -0.00609454
     atom   28 type  2   force =    -0.00258469   -0.00003073   -0.00560745
     atom   29 type  2   force =    -0.00246010    0.00000000   -0.00499455
     atom   30 type  2   force =    -0.00258469    0.00003073   -0.00560745
     atom   31 type  2   force =    -0.00956030    0.00015355   -0.00165139
     atom   32 type  2   force =    -0.00963499    0.00000000   -0.00173641
     atom   33 type  2   force =    -0.00956030   -0.00015355   -0.00165139
     atom   34 type  2   force =    -0.00942969   -0.00001343   -0.00175707
     atom   35 type  2   force =    -0.00942969    0.00001343   -0.00175707
     atom   36 type  2   force =     0.00756420    0.00001447   -0.00139818
     atom   37 type  2   force =     0.00756420   -0.00001447   -0.00139818
     atom   38 type  2   force =     0.00689407   -0.00015278   -0.00114923
     atom   39 type  2   force =     0.00707469    0.00000000   -0.00133172
     atom   40 type  2   force =     0.00689407    0.00015278   -0.00114923
     atom   41 type  3   force =    -0.00017151    0.00369731    0.00165839
     atom   42 type  3   force =     0.00082841   -0.00082982    0.00167230
     atom   43 type  3   force =     0.00025151   -0.00349050    0.00014351
     atom   44 type  3   force =    -0.00081340    0.00109680    0.00011680
     atom   45 type  3   force =    -0.00029727    0.00386636    0.00234618
     atom   46 type  3   force =     0.00091330   -0.00094019    0.00178834
     atom   47 type  3   force =     0.00027828   -0.00358128    0.00056271
     atom   48 type  3   force =    -0.00094971    0.00135669    0.00097358
     atom   49 type  3   force =     0.00082841    0.00082982    0.00167230
     atom   50 type  3   force =    -0.00017151   -0.00369731    0.00165839
     atom   51 type  3   force =    -0.00081340   -0.00109680    0.00011680
     atom   52 type  3   force =     0.00025151    0.00349050    0.00014351
     atom   53 type  3   force =     0.00091330    0.00094019    0.00178834
     atom   54 type  3   force =    -0.00029727   -0.00386636    0.00234618
     atom   55 type  3   force =    -0.00094971   -0.00135669    0.00097358
     atom   56 type  3   force =     0.00027828    0.00358128    0.00056271
     atom   57 type  3   force =    -0.00065692   -0.00160637    0.00104995
     atom   58 type  3   force =     0.00052538    0.00079939   -0.00016913
     atom   59 type  3   force =     0.00071621    0.00176824    0.00078923
     atom   60 type  3   force =    -0.00052299   -0.00039597    0.00197878
     atom   61 type  3   force =    -0.00083848   -0.00172048    0.00102824
     atom   62 type  3   force =     0.00047321    0.00064870   -0.00022452
     atom   63 type  3   force =     0.00100786    0.00177266    0.00092322
     atom   64 type  3   force =    -0.00041251   -0.00032453    0.00202204
     atom   65 type  3   force =     0.00052538   -0.00079939   -0.00016913
     atom   66 type  3   force =    -0.00065692    0.00160637    0.00104995
     atom   67 type  3   force =    -0.00052299    0.00039597    0.00197878
     atom   68 type  3   force =     0.00071621   -0.00176824    0.00078923
     atom   69 type  3   force =     0.00047321   -0.00064870   -0.00022452
     atom   70 type  3   force =    -0.00083848    0.00172048    0.00102824
     atom   71 type  3   force =    -0.00041251    0.00032453    0.00202204
     atom   72 type  3   force =     0.00100786   -0.00177266    0.00092322

     Total force =     0.047756     Total SCF correction =     0.000572

     number of scf cycles    =  12
     number of bfgs steps    =  11

     energy   old            =   -2323.1316183948 Ry
     energy   new            =   -2323.1344109692 Ry

     CASE: energy  _new < energy  _old

     new trust radius        =       0.0658005464 bohr
     new conv_thr            =       0.0000000963 Ry


ATOMIC_POSITIONS (crystal)
Ti       0.324883712   0.050194971   0.099427356
Ti       0.324383296   0.250000000   0.099374787
Ti       0.324883712   0.449805029   0.099427356
Ti       0.325987824   0.649929406   0.099733036
Ti       0.325987824   0.850070594   0.099733036
Ti       0.825510995   0.149966649  -0.010522174
Ti       0.825510995   0.350033351  -0.010522174
Ti       0.826307953   0.550118007  -0.010007352
Ti       0.826810682   0.750000000  -0.009724591
Ti       0.826307953   0.949881993  -0.010007352
S        0.618271061   0.049644489   0.928097958
S        0.617906434   0.250000000   0.927852485
S        0.618271061   0.450355511   0.928097958
S        0.618814618   0.650169676   0.928481191
S        0.618814618   0.849830324   0.928481191
S        0.533090491   0.150097703   0.161551230
S        0.533090491   0.349902297   0.161551230
S        0.535377791   0.549736257   0.161299073
S        0.536796590   0.750000000   0.161349808
S        0.535377791   0.950263743   0.161299073
S        0.825234018   0.050178523   0.061307024
S        0.824920635   0.250000000   0.061183848
S        0.825234018   0.449821477   0.061307024
S        0.826087477   0.649952516   0.061657611
S        0.826087477   0.850047484   0.061657611
S        0.326498499   0.150094455   0.027806740
S        0.326498499   0.349905545   0.027806740
S        0.327032840   0.550051823   0.028058975
S        0.327381230   0.750000000   0.028179686
S        0.327032840   0.949948177   0.028058975
S        0.035952974   0.049687487   0.927834810
S        0.035713249   0.250000000   0.927620804
S        0.035952974   0.450312513   0.927834810
S        0.036361820   0.650157399   0.928176606
S        0.036361820   0.849842601   0.928176606
S        0.115340595   0.150109354   0.161609420
S        0.115340595   0.349890646   0.161609420
S        0.117811235   0.549779665   0.162024875
S        0.119289614   0.750000000   0.162466688
S        0.117811235   0.950220335   0.162024875
C        0.375452480   0.208200929   0.302633377
C        0.375482727   0.458262675   0.302256021
C        0.375557992   0.708282688   0.302191377
C        0.375485848   0.958225224   0.302577589
C        0.875435287   0.208214828   0.302423170
C        0.875486307   0.458286354   0.302097373
C        0.875568857   0.708273645   0.301975793
C        0.875472713   0.958209217   0.302326356
C        0.375482727   0.041737325   0.302256021
C        0.375452480   0.291799071   0.302633377
C        0.375485848   0.541774776   0.302577589
C        0.375557992   0.791717312   0.302191377
C        0.875486307   0.041713646   0.302097373
C        0.875435287   0.291785172   0.302423170
C        0.875472713   0.541790783   0.302326356
C        0.875568857   0.791726355   0.301975793
C        0.125400583   0.083253241   0.302292412
C        0.125397360   0.333248116   0.302611512
C        0.125478267   0.583246213   0.302468237
C        0.125495700   0.833234098   0.302142196
C        0.625433728   0.083249412   0.302247406
C        0.625441034   0.333240640   0.302562749
C        0.625487534   0.583252164   0.302388060
C        0.625496314   0.833244854   0.302067837
C        0.125397360   0.166751884   0.302611512
C        0.125400583   0.416746759   0.302292412
C        0.125495700   0.666765902   0.302142196
C        0.125478267   0.916753787   0.302468237
C        0.625441034   0.166759360   0.302562749
C        0.625433728   0.416750588   0.302247406
C        0.625496314   0.666755146   0.302067837
C        0.625487534   0.916747836   0.302388060



     Writing output data file TiS3.save
     Check: negative starting charge=   -0.023898
     NEW-OLD atomic charge density approx. for the potential

     Check: negative/imaginary core charge=   -0.000006    0.000000
     Check: negative starting charge=   -0.023676

     negative rho (up, down):  3.059E-02 0.000E+00

     total cpu time spent up to now is    78898.4 secs

     per-process dynamical memory:   362.3 Mb

     Self-consistent Calculation

     iteration #  1     ecut=    39.00 Ry     beta=0.30
     Davidson diagonalization with overlap
     ethr =  1.00E-06,  avg # of iterations =  8.0

     negative rho (up, down):  3.046E-02 0.000E+00

     total cpu time spent up to now is    80207.2 secs

     total energy              =   -2323.13396086 Ry
     Harris-Foulkes estimate   =   -2323.14293552 Ry
     estimated scf accuracy    <       0.03150582 Ry

     iteration #  2     ecut=    39.00 Ry     beta=0.30
     Davidson diagonalization with overlap
     ethr =  7.36E-06,  avg # of iterations =  3.4

     negative rho (up, down):  3.060E-02 0.000E+00

     total cpu time spent up to now is    80635.9 secs

     total energy              =   -2323.13490392 Ry
     Harris-Foulkes estimate   =   -2323.13774731 Ry
     estimated scf accuracy    <       0.01233171 Ry

     iteration #  3     ecut=    39.00 Ry     beta=0.30
     Davidson diagonalization with overlap
     c_bands:  1 eigenvalues not converged
     ethr =  2.88E-06,  avg # of iterations = 12.5

     negative rho (up, down):  3.078E-02 0.000E+00

     total cpu time spent up to now is    81209.1 secs

     total energy              =   -2323.13541348 Ry
     Harris-Foulkes estimate   =   -2323.13828363 Ry
     estimated scf accuracy    <       0.01677984 Ry

     iteration #  4     ecut=    39.00 Ry     beta=0.30
     Davidson diagonalization with overlap
     ethr =  2.88E-06,  avg # of iterations = 12.0

     negative rho (up, down):  3.098E-02 0.000E+00

     total cpu time spent up to now is    81741.9 secs

     total energy              =   -2323.13698114 Ry
     Harris-Foulkes estimate   =   -2323.13730120 Ry
     estimated scf accuracy    <       0.00263869 Ry

     iteration #  5     ecut=    39.00 Ry     beta=0.30
     Davidson diagonalization with overlap
     ethr =  6.17E-07,  avg # of iterations =  4.9

     negative rho (up, down):  3.117E-02 0.000E+00

     total cpu time spent up to now is    82190.8 secs

     total energy              =   -2323.13737471 Ry
     Harris-Foulkes estimate   =   -2323.13753936 Ry
     estimated scf accuracy    <       0.00152481 Ry

     iteration #  6     ecut=    39.00 Ry     beta=0.30
     Davidson diagonalization with overlap
     ethr =  3.56E-07,  avg # of iterations =  2.1

     negative rho (up, down):  3.128E-02 0.000E+00

     total cpu time spent up to now is    82571.4 secs

     total energy              =   -2323.13754867 Ry
     Harris-Foulkes estimate   =   -2323.13757403 Ry
     estimated scf accuracy    <       0.00032495 Ry

     iteration #  7     ecut=    39.00 Ry     beta=0.30
     Davidson diagonalization with overlap
     ethr =  7.59E-08,  avg # of iterations =  5.1

     negative rho (up, down):  3.139E-02 0.000E+00

     total cpu time spent up to now is    83111.3 secs

     total energy              =   -2323.13766214 Ry
     Harris-Foulkes estimate   =   -2323.13765489 Ry
     estimated scf accuracy    <       0.00011858 Ry

     iteration #  8     ecut=    39.00 Ry     beta=0.30
     Davidson diagonalization with overlap
     ethr =  2.77E-08,  avg # of iterations =  2.9

     negative rho (up, down):  3.145E-02 0.000E+00

     total cpu time spent up to now is    83515.2 secs

     total energy              =   -2323.13768420 Ry
     Harris-Foulkes estimate   =   -2323.13767645 Ry
     estimated scf accuracy    <       0.00001543 Ry

     iteration #  9     ecut=    39.00 Ry     beta=0.30
     Davidson diagonalization with overlap
     ethr =  3.61E-09,  avg # of iterations =  5.8

     negative rho (up, down):  3.150E-02 0.000E+00

     total cpu time spent up to now is    84190.0 secs

     total energy              =   -2323.13769251 Ry
     Harris-Foulkes estimate   =   -2323.13769217 Ry
     estimated scf accuracy    <       0.00002544 Ry

     iteration # 10     ecut=    39.00 Ry     beta=0.30
     Davidson diagonalization with overlap
     ethr =  3.61E-09,  avg # of iterations =  2.0

     negative rho (up, down):  3.154E-02 0.000E+00

     total cpu time spent up to now is    84579.3 secs

     total energy              =   -2323.13769655 Ry
     Harris-Foulkes estimate   =   -2323.13769488 Ry
     estimated scf accuracy    <       0.00000315 Ry

     iteration # 11     ecut=    39.00 Ry     beta=0.30
     Davidson diagonalization with overlap
     ethr =  7.36E-10,  avg # of iterations =  4.1

     negative rho (up, down):  3.157E-02 0.000E+00

     total cpu time spent up to now is    85028.2 secs

     total energy              =   -2323.13769788 Ry
     Harris-Foulkes estimate   =   -2323.13769707 Ry
     estimated scf accuracy    <       0.00000081 Ry

     iteration # 12     ecut=    39.00 Ry     beta=0.30
     Davidson diagonalization with overlap
     ethr =  1.88E-10,  avg # of iterations =  5.1

     negative rho (up, down):  3.159E-02 0.000E+00

     total cpu time spent up to now is    85521.7 secs

     total energy              =   -2323.13769851 Ry
     Harris-Foulkes estimate   =   -2323.13769810 Ry
     estimated scf accuracy    <       0.00000052 Ry

     iteration # 13     ecut=    39.00 Ry     beta=0.30
     Davidson diagonalization with overlap
     ethr =  1.22E-10,  avg # of iterations =  3.6

     negative rho (up, down):  3.161E-02 0.000E+00

     total cpu time spent up to now is    85931.0 secs

     total energy              =   -2323.13769883 Ry
     Harris-Foulkes estimate   =   -2323.13769860 Ry
     estimated scf accuracy    <       0.00000011 Ry

     iteration # 14     ecut=    39.00 Ry     beta=0.30
     Davidson diagonalization with overlap
slurmd[node1-099-01]: *** JOB 1844735 CANCELLED AT 2019-12-02T14:29:04 DUE TO TIME LIMIT ***
slurmd[node1-099-01]: *** STEP 1844735.1 CANCELLED AT 2019-12-02T14:29:04 DUE TO TIME LIMIT ***
forrtl: error (78): process killed (SIGTERM)
Image              PC                Routine            Line        Source             

Stack trace terminated abnormally.
forrtl: error (78): process killed (SIGTERM)
Image              PC                Routine            Line        Source             

Stack trace terminated abnormally.
forrtl: error (78): process killed (SIGTERM)
Image              PC                Routine            Line        Source             

Stack trace terminated abnormally.
forrtl: error (78): process killed (SIGTERM)
Image              PC                Routine            Line        Source             

Stack trace terminated abnormally.
forrtl: error (78): process killed (SIGTERM)
Image              PC                Routine            Line        Source             

Stack trace terminated abnormally.
forrtl: error (78): process killed (SIGTERM)
Image              PC                Routine            Line        Source             

Stack trace terminated abnormally.
forrtl: error (78): process killed (SIGTERM)
Image              PC                Routine            Line        Source             

Stack trace terminated abnormally.
forrtl: error (78): process killed (SIGTERM)
Image              PC                Routine            Line        Source             

Stack trace terminated abnormally.
forrtl: error (78): process killed (SIGTERM)
Image              PC                Routine            Line        Source             

Stack trace terminated abnormally.
forrtl: error (78): process killed (SIGTERM)
Image              PC                Routine            Line        Source             

Stack trace terminated abnormally.
forrtl: error (78): process killed (SIGTERM)
Image              PC                Routine            Line        Source             

Stack trace terminated abnormally.
forrtl: error (78): process killed (SIGTERM)
Image              PC                Routine            Line        Source             

Stack trace terminated abnormally.
