
     Program PWSCF v.5.1.1 starts on 28Nov2019 at  3:51:22 

     This program is part of the open-source Quantum ESPRESSO suite
     for quantum simulation of materials; please cite
         "P. Giannozzi et al., J. Phys.:Condens. Matter 21 395502 (2009);
          URL http://www.quantum-espresso.org", 
     in publications or presentations arising from this work. More details at
     http://www.quantum-espresso.org/quote

     Parallel version (MPI & OpenMP), running on      24 processor cores
     Number of MPI processes:                12
     Threads/MPI process:                     2
     R & G space division:  proc/nbgrp/npool/nimage =      12
     Reading input from TiS3.scf.cg.in
Warning: card   &CELL ignored
Warning: card  / ignored

     Current dimensions of program PWSCF are:
     Max number of different atomic species (ntypx) = 10
     Max number of k-points (npk) =  40000
     Max angular momentum in pseudopotentials (lmaxx) =  3

     IMPORTANT: XC functional enforced from input :
     Exchange-correlation      = VDW-DF ( 1  4  4  0 1 0)
     Any further DFT definition will be discarded
     Please, verify this is what you really want


     Subspace diagonalization in iterative solution of the eigenvalue problem:
     a serial algorithm will be used

 
     Parallelization info
     --------------------
     sticks:   dense  smooth     PW     G-vecs:    dense   smooth      PW
     Min         592     309     85               103107    38657    5687
     Max         594     310     86               103110    38691    5696
     Sum        7111    3711   1025              1237307   464101   68291
 


     bravais-lattice index     =            0
     lattice parameter (alat)  =       1.8897  a.u.
     unit-cell volume          =   14101.0269 (a.u.)^3
     number of atoms/cell      =           72
     number of atomic types    =            3
     number of electrons       =       428.00
     number of Kohn-Sham states=          257
     kinetic-energy cutoff     =      39.0000  Ry
     charge density cutoff     =     300.0000  Ry
     convergence threshold     =      1.0E-06
     mixing beta               =       0.3000
     number of iterations used =            8  plain     mixing
     Exchange-correlation      = VDW-DF ( 1  4  4  0 1 0)
     nstep                     =           99


     celldm(1)=   1.889726  celldm(2)=   0.000000  celldm(3)=   0.000000
     celldm(4)=   0.000000  celldm(5)=   0.000000  celldm(6)=   0.000000

     crystal axes: (cart. coord. in units of alat)
               a(1) = (   4.947600   0.000000   0.000000 )  
               a(2) = (   0.000000  16.893500   0.000000 )  
               a(3) = (   0.000000   0.000000  25.000000 )  

     reciprocal axes: (cart. coord. in units 2 pi/alat)
               b(1) = (  0.202118  0.000000  0.000000 )  
               b(2) = (  0.000000  0.059194  0.000000 )  
               b(3) = (  0.000000  0.000000  0.040000 )  


     PseudoPot. # 1 for Ti read from file:
     ./Ti.pbe-spn-rrkjus_psl.0.3.1.UPF
     MD5 check sum: 3a8d0781337a465ed61b0a8b42a1557b
     Pseudo is Ultrasoft + core correction, Zval = 12.0
     Generated using "atomic" code by A. Dal Corso  v.5.0.2 svn rev. 10551
     Using radial grid of 1177 points,  6 beta functions with: 
                l(1) =   0
                l(2) =   0
                l(3) =   1
                l(4) =   1
                l(5) =   2
                l(6) =   2
     Q(r) pseudized with 0 coefficients 


     PseudoPot. # 2 for  S read from file:
     ./S.pbe-n-rrkjus_psl.0.1.UPF
     MD5 check sum: 884d5d7fb9162c2ff34d476565c2f60b
     Pseudo is Ultrasoft + core correction, Zval =  6.0
     Generated using "atomic" code by A. Dal Corso  v.5.0.99 svn rev. 10869
     Using radial grid of 1151 points,  4 beta functions with: 
                l(1) =   0
                l(2) =   0
                l(3) =   1
                l(4) =   1
     Q(r) pseudized with 0 coefficients 


     PseudoPot. # 3 for  C read from file:
     ./C.pbe-n-rrkjus_psl.0.1.UPF
     MD5 check sum: b524aa6f26bea011a39bb5addbeca40d
     Pseudo is Ultrasoft + core correction, Zval =  4.0
     Generated using "atomic" code by A. Dal Corso  v.5.0.99 svn rev. 10869
     Using radial grid of 1073 points,  4 beta functions with: 
                l(1) =   0
                l(2) =   0
                l(3) =   1
                l(4) =   1
     Q(r) pseudized with 0 coefficients 


     vdW kernel table read from file vdW_kernel_table
     MD5 check sum: 48e77a2e26edf626eeb0eaa751ad5cac

     atomic species   valence    mass     pseudopotential
        Ti            12.00    47.86700     Ti( 1.00)
        S              6.00    32.06600      S( 1.00)
        C              4.00    12.01070      C( 1.00)

      2 Sym. Ops. (no inversion) found ( 1 have fractional translation)



   Cartesian axes

     site n.     atom                  positions (alat units)
         1           Ti  tau(   1) = (   1.6250293   0.8446750   2.6185500  )
         2           Ti  tau(   2) = (   1.6250293   4.2233750   2.6185500  )
         3           Ti  tau(   3) = (   1.6250293   7.6020750   2.6185500  )
         4           Ti  tau(   4) = (   1.6250293  10.9807750   2.6185500  )
         5           Ti  tau(   5) = (   1.6250293  14.3594750   2.6185500  )
         6           Ti  tau(   6) = (   4.0809091   2.5340250   0.0000000  )
         7           Ti  tau(   7) = (   4.0809091   5.9127250   0.0000000  )
         8           Ti  tau(   8) = (   4.0809091   9.2914250   0.0000000  )
         9           Ti  tau(   9) = (   4.0809091  12.6701250   0.0000000  )
        10           Ti  tau(  10) = (   4.0809091  16.0488250   0.0000000  )
        11           S   tau(  11) = (   3.0372178   0.8446750  23.5034250  )
        12           S   tau(  12) = (   3.0372178   4.2233750  23.5034250  )
        13           S   tau(  13) = (   3.0372178   7.6020750  23.5034250  )
        14           S   tau(  14) = (   3.0372178  10.9807750  23.5034250  )
        15           S   tau(  15) = (   3.0372178  14.3594750  23.5034250  )
        16           S   tau(  16) = (   2.6687206   2.5340250   4.1151250  )
        17           S   tau(  17) = (   2.6687206   5.9127250   4.1151250  )
        18           S   tau(  18) = (   2.6687206   9.2914250   4.1151250  )
        19           S   tau(  19) = (   2.6687206  12.6701250   4.1151250  )
        20           S   tau(  20) = (   2.6687206  16.0488250   4.1151250  )
        21           S   tau(  21) = (   4.0802362   0.8446750   1.7549500  )
        22           S   tau(  22) = (   4.0802362   4.2233750   1.7549500  )
        23           S   tau(  23) = (   4.0802362   7.6020750   1.7549500  )
        24           S   tau(  24) = (   4.0802362  10.9807750   1.7549500  )
        25           S   tau(  25) = (   4.0802362  14.3594750   1.7549500  )
        26           S   tau(  26) = (   1.6256973   2.5340250   0.8636000  )
        27           S   tau(  27) = (   1.6256973   5.9127250   0.8636000  )
        28           S   tau(  28) = (   1.6256973   9.2914250   0.8636000  )
        29           S   tau(  29) = (   1.6256973  12.6701250   0.8636000  )
        30           S   tau(  30) = (   1.6256973  16.0488250   0.8636000  )
        31           S   tau(  31) = (   0.2056915   0.8446750  23.4739500  )
        32           S   tau(  32) = (   0.2056915   4.2233750  23.4739500  )
        33           S   tau(  33) = (   0.2056915   7.6020750  23.4739500  )
        34           S   tau(  34) = (   0.2056915  10.9807750  23.4739500  )
        35           S   tau(  35) = (   0.2056915  14.3594750  23.4739500  )
        36           S   tau(  36) = (   0.5526469   2.5340250   4.1446000  )
        37           S   tau(  37) = (   0.5526469   5.9127250   4.1446000  )
        38           S   tau(  38) = (   0.5526469   9.2914250   4.1446000  )
        39           S   tau(  39) = (   0.5526469  12.6701250   4.1446000  )
        40           S   tau(  40) = (   0.5526469  16.0488250   4.1446000  )
        41           C   tau(  41) = (   1.8553500   3.5198452   7.3211400  )
        42           C   tau(  42) = (   1.8553500   7.7432202   7.3211400  )
        43           C   tau(  43) = (   1.8553500  11.9665952   7.3211400  )
        44           C   tau(  44) = (   1.8553500  16.1899702   7.3211400  )
        45           C   tau(  45) = (   4.3291500   3.5198452   7.3211400  )
        46           C   tau(  46) = (   4.3291500   7.7432202   7.3211400  )
        47           C   tau(  47) = (   4.3291500  11.9665952   7.3211400  )
        48           C   tau(  48) = (   4.3291500  16.1899702   7.3211400  )
        49           C   tau(  49) = (   1.8553500   0.7035298   7.3211400  )
        50           C   tau(  50) = (   1.8553500   4.9269048   7.3211400  )
        51           C   tau(  51) = (   1.8553500   9.1502798   7.3211400  )
        52           C   tau(  52) = (   1.8553500  13.3736548   7.3211400  )
        53           C   tau(  53) = (   4.3291500   0.7035298   7.3211400  )
        54           C   tau(  54) = (   4.3291500   4.9269048   7.3211400  )
        55           C   tau(  55) = (   4.3291500   9.1502798   7.3211400  )
        56           C   tau(  56) = (   4.3291500  13.3736548   7.3211400  )
        57           C   tau(  57) = (   0.6184500   1.4081577   7.3211400  )
        58           C   tau(  58) = (   0.6184500   5.6315327   7.3211400  )
        59           C   tau(  59) = (   0.6184500   9.8549077   7.3211400  )
        60           C   tau(  60) = (   0.6184500  14.0782827   7.3211400  )
        61           C   tau(  61) = (   3.0922500   1.4081577   7.3211400  )
        62           C   tau(  62) = (   3.0922500   5.6315327   7.3211400  )
        63           C   tau(  63) = (   3.0922500   9.8549077   7.3211400  )
        64           C   tau(  64) = (   3.0922500  14.0782827   7.3211400  )
        65           C   tau(  65) = (   0.6184500   2.8152173   7.3211400  )
        66           C   tau(  66) = (   0.6184500   7.0385923   7.3211400  )
        67           C   tau(  67) = (   0.6184500  11.2619673   7.3211400  )
        68           C   tau(  68) = (   0.6184500  15.4853423   7.3211400  )
        69           C   tau(  69) = (   3.0922500   2.8152173   7.3211400  )
        70           C   tau(  70) = (   3.0922500   7.0385923   7.3211400  )
        71           C   tau(  71) = (   3.0922500  11.2619673   7.3211400  )
        72           C   tau(  72) = (   3.0922500  15.4853423   7.3211400  )

     number of k points=     8  gaussian smearing, width (Ry)=  0.0200
                       cart. coord. in units 2pi/alat
        k(    1) = (   0.0000000   0.0000000   0.0000000), wk =   0.1666667
        k(    2) = (   0.0000000  -0.0295972   0.0000000), wk =   0.1666667
        k(    3) = (   0.0336864   0.0000000   0.0000000), wk =   0.3333333
        k(    4) = (   0.0336864  -0.0295972   0.0000000), wk =   0.3333333
        k(    5) = (   0.0673727   0.0000000   0.0000000), wk =   0.3333333
        k(    6) = (   0.0673727  -0.0295972   0.0000000), wk =   0.3333333
        k(    7) = (  -0.1010591   0.0000000   0.0000000), wk =   0.1666667
        k(    8) = (  -0.1010591  -0.0295972   0.0000000), wk =   0.1666667

     Dense  grid:  1237307 G-vectors     FFT dimensions: (  54, 180, 270)

     Smooth grid:   464101 G-vectors     FFT dimensions: (  40, 128, 192)

     Largest allocated arrays     est. size (Mb)     dimensions
        Kohn-Sham Wavefunctions        19.24 Mb     (    4907,  257)
        NL pseudopotentials            50.62 Mb     (    4907,  676)
        Each V/rho on FFT grid          3.41 Mb     (  223560)
        Each G-vector array             0.79 Mb     (  103110)
        G-vector shells                 0.38 Mb     (   49514)
     Largest temporary arrays     est. size (Mb)     dimensions
        Auxiliary wavefunctions        76.97 Mb     (    4907, 1028)
        Each subspace H/S matrix       16.13 Mb     (    1028, 1028)
        Each <psi_i|beta_j> matrix      2.65 Mb     (     676,  257)
        Arrays for rho mixing          27.29 Mb     (  223560,    8)

     Check: negative/imaginary core charge=   -0.000006    0.000000

     Initial potential from superposition of free atoms
     Check: negative starting charge=   -0.024324

     starting charge  427.98291, renormalised to  428.00000

     negative rho (up, down):  2.433E-02 0.000E+00


     ************************************************************************
     *
     * You are using vdW-DF for exchange-correlation in this calculation.
     * Please cite the following three references that made this development
     * possible:
     *
     *   M. Dion, H. Rydberg, E. Schroder, D. C. Langreth, and
     *   B. I. Lundqvist, Phys. Rev. Lett. 92, 246401 (2004).
     *
     *   T. Thonhauser, V. R. Cooper, S. Li, A. Puzder, P. Hyldgaard, and
     *   D. C. Langreth, Phys. Rev. B 76, 125112 (2007).
     *
     *   G. Roman-Perez and J. M. Soler, Phys. Rev. Lett. 103, 096102 (2009).
     *
     *
     * If you are using vdW-DF2, please also cite:
     *
     *   K. Lee, E. D. Murray, L. Kong, B. I. Lundqvist, and
     *   D. C. Langreth, Phys. Rev. B 82, 081101(R) (2010).
     *
     *
     * If you are calculating the stress with vdW-DF, please also cite:
     *
     *   R. Sabatini, E. Kucukbenli, B. Kolb, T. Thonhauser, and
     *   S. de Gironcoli, J. Phys.: Condens. Matter 24, 424209 (2012).
     *
     ************************************************************************

     Carrying out vdW-DF run using the following parameters:

     Nqs =      20    Nr_points =    1024   r_max =   100.000
     q_mesh =
               0.00001000     0.04494208     0.09755937     0.15916263
               0.23128650     0.31572767     0.41458969     0.53033537
               0.66584808     0.82450364     1.01025438     1.22772762
               1.48234092     1.78043706     2.12944203     2.53805004
               3.01644009     3.57652955     4.23227104     5.00000000

     Gradients computed in reciprocal space

     ************************************************************************


     Starting wfc are  378 randomized atomic wfcs

     total cpu time spent up to now is      228.1 secs

     per-process dynamical memory:   314.6 Mb

     Self-consistent Calculation

     iteration #  1     ecut=    39.00 Ry     beta=0.30
     Davidson diagonalization with overlap
     ethr =  1.00E-02,  avg # of iterations =  4.0

     negative rho (up, down):  2.364E-02 0.000E+00

     total cpu time spent up to now is      805.8 secs

     total energy              =   -2322.19263621 Ry
     Harris-Foulkes estimate   =   -2324.50995899 Ry
     estimated scf accuracy    <       6.39709671 Ry

     iteration #  2     ecut=    39.00 Ry     beta=0.30
     Davidson diagonalization with overlap
     ethr =  1.49E-03,  avg # of iterations =  6.6

     negative rho (up, down):  2.518E-02 0.000E+00

     total cpu time spent up to now is     1306.3 secs

     total energy              =   -2321.93159544 Ry
     Harris-Foulkes estimate   =   -2323.52932971 Ry
     estimated scf accuracy    <       6.79974027 Ry

     iteration #  3     ecut=    39.00 Ry     beta=0.30
     Davidson diagonalization with overlap
     ethr =  1.49E-03,  avg # of iterations =  3.6

     negative rho (up, down):  2.589E-02 0.000E+00

     total cpu time spent up to now is     1713.0 secs

     total energy              =   -2321.90209964 Ry
     Harris-Foulkes estimate   =   -2323.59336160 Ry
     estimated scf accuracy    <      12.10642059 Ry

     iteration #  4     ecut=    39.00 Ry     beta=0.30
     Davidson diagonalization with overlap
     ethr =  1.49E-03,  avg # of iterations =  2.0

     negative rho (up, down):  2.695E-02 0.000E+00

     total cpu time spent up to now is     2089.7 secs

     total energy              =   -2322.72561121 Ry
     Harris-Foulkes estimate   =   -2323.02376187 Ry
     estimated scf accuracy    <       1.09403052 Ry

     iteration #  5     ecut=    39.00 Ry     beta=0.30
     Davidson diagonalization with overlap
     ethr =  2.56E-04,  avg # of iterations = 10.1

     negative rho (up, down):  2.838E-02 0.000E+00

     total cpu time spent up to now is     2712.9 secs

     total energy              =   -2322.96699705 Ry
     Harris-Foulkes estimate   =   -2323.02317233 Ry
     estimated scf accuracy    <       0.32652125 Ry

     iteration #  6     ecut=    39.00 Ry     beta=0.30
     Davidson diagonalization with overlap
     ethr =  7.63E-05,  avg # of iterations =  7.4

     negative rho (up, down):  2.937E-02 0.000E+00

     total cpu time spent up to now is     3222.4 secs

     total energy              =   -2323.01594645 Ry
     Harris-Foulkes estimate   =   -2323.02679408 Ry
     estimated scf accuracy    <       0.09097334 Ry

     iteration #  7     ecut=    39.00 Ry     beta=0.30
     Davidson diagonalization with overlap
     ethr =  2.13E-05,  avg # of iterations = 13.2

     negative rho (up, down):  3.038E-02 0.000E+00

     total cpu time spent up to now is     3853.6 secs

     total energy              =   -2323.03008277 Ry
     Harris-Foulkes estimate   =   -2323.03257619 Ry
     estimated scf accuracy    <       0.02450595 Ry

     iteration #  8     ecut=    39.00 Ry     beta=0.30
     Davidson diagonalization with overlap
     c_bands:  2 eigenvalues not converged
     ethr =  5.73E-06,  avg # of iterations = 10.9

     negative rho (up, down):  3.122E-02 0.000E+00

     total cpu time spent up to now is     4479.9 secs

     total energy              =   -2323.03479657 Ry
     Harris-Foulkes estimate   =   -2323.03594385 Ry
     estimated scf accuracy    <       0.01311829 Ry

     iteration #  9     ecut=    39.00 Ry     beta=0.30
     Davidson diagonalization with overlap
     c_bands:  1 eigenvalues not converged
     ethr =  3.07E-06,  avg # of iterations =  6.0

     negative rho (up, down):  3.170E-02 0.000E+00

     total cpu time spent up to now is     4898.4 secs

     total energy              =   -2323.03587049 Ry
     Harris-Foulkes estimate   =   -2323.03622593 Ry
     estimated scf accuracy    <       0.00223164 Ry

     iteration # 10     ecut=    39.00 Ry     beta=0.30
     Davidson diagonalization with overlap
     ethr =  5.21E-07,  avg # of iterations = 12.5

     negative rho (up, down):  3.201E-02 0.000E+00

     total cpu time spent up to now is     5735.3 secs

     total energy              =   -2323.03644865 Ry
     Harris-Foulkes estimate   =   -2323.03698081 Ry
     estimated scf accuracy    <       0.00351944 Ry

     iteration # 11     ecut=    39.00 Ry     beta=0.30
     Davidson diagonalization with overlap
     c_bands:  1 eigenvalues not converged
     ethr =  5.21E-07,  avg # of iterations =  9.0

     negative rho (up, down):  3.229E-02 0.000E+00

     total cpu time spent up to now is     6188.8 secs

     total energy              =   -2323.03676097 Ry
     Harris-Foulkes estimate   =   -2323.03678403 Ry
     estimated scf accuracy    <       0.00041141 Ry

     iteration # 12     ecut=    39.00 Ry     beta=0.30
     Davidson diagonalization with overlap
     ethr =  9.61E-08,  avg # of iterations =  4.9

     negative rho (up, down):  3.246E-02 0.000E+00

     total cpu time spent up to now is     6635.0 secs

     total energy              =   -2323.03680821 Ry
     Harris-Foulkes estimate   =   -2323.03683088 Ry
     estimated scf accuracy    <       0.00014365 Ry

     iteration # 13     ecut=    39.00 Ry     beta=0.30
     Davidson diagonalization with overlap
     ethr =  3.36E-08,  avg # of iterations =  4.5

     negative rho (up, down):  3.260E-02 0.000E+00

     total cpu time spent up to now is     7079.4 secs

     total energy              =   -2323.03682936 Ry
     Harris-Foulkes estimate   =   -2323.03684132 Ry
     estimated scf accuracy    <       0.00009405 Ry

     iteration # 14     ecut=    39.00 Ry     beta=0.30
     Davidson diagonalization with overlap
     ethr =  2.20E-08,  avg # of iterations =  2.8

     negative rho (up, down):  3.269E-02 0.000E+00

     total cpu time spent up to now is     7471.9 secs

     total energy              =   -2323.03684314 Ry
     Harris-Foulkes estimate   =   -2323.03684404 Ry
     estimated scf accuracy    <       0.00001574 Ry

     iteration # 15     ecut=    39.00 Ry     beta=0.30
     Davidson diagonalization with overlap
     ethr =  3.68E-09,  avg # of iterations =  4.2

     negative rho (up, down):  3.277E-02 0.000E+00

     total cpu time spent up to now is     8174.9 secs

     total energy              =   -2323.03685177 Ry
     Harris-Foulkes estimate   =   -2323.03685081 Ry
     estimated scf accuracy    <       0.00000437 Ry

     iteration # 16     ecut=    39.00 Ry     beta=0.30
     Davidson diagonalization with overlap
     ethr =  1.02E-09,  avg # of iterations =  2.9

     negative rho (up, down):  3.283E-02 0.000E+00

     total cpu time spent up to now is     8583.3 secs

     total energy              =   -2323.03685290 Ry
     Harris-Foulkes estimate   =   -2323.03685239 Ry
     estimated scf accuracy    <       0.00000106 Ry

     iteration # 17     ecut=    39.00 Ry     beta=0.30
     Davidson diagonalization with overlap
     ethr =  2.48E-10,  avg # of iterations =  4.0

     negative rho (up, down):  3.297E-02 0.000E+00

     total cpu time spent up to now is     9032.2 secs

     End of self-consistent calculation

          k = 0.0000 0.0000 0.0000 ( 58029 PWs)   bands (ev):

   -56.3581 -56.3546 -56.3461 -56.3451 -56.3382 -56.3180 -56.3145 -56.3144
   -56.3113 -56.3094 -32.7159 -32.7065 -32.6800 -32.6789 -32.6774 -32.6701
   -32.6668 -32.6580 -32.6542 -32.6531 -32.6512 -32.6411 -32.6343 -32.6341
   -32.6254 -32.6235 -32.6194 -32.6189 -32.6159 -32.5838 -32.4778 -32.4724
   -32.4646 -32.4624 -32.4542 -32.4317 -32.4272 -32.4271 -32.4226 -32.4205
   -18.0777 -17.7038 -17.7038 -16.5934 -16.5914 -14.7820 -14.7820 -14.4468
   -14.2678 -14.2453 -14.2424 -14.1054 -14.1053 -13.9100 -13.9097 -13.8727
   -13.8681 -13.8101 -13.8085 -13.5456 -13.5455 -13.5413 -13.5413 -12.9342
   -12.9300 -12.6983 -12.2954 -12.1037 -12.1029 -11.8248 -11.7705 -11.7696
   -11.5339 -11.5336 -10.8669 -10.8666 -10.6827 -10.6536 -10.6534 -10.5550
   -10.5549 -10.5523 -10.5521  -9.6704  -9.5616  -9.5207  -9.5158  -9.4102
    -9.4098  -9.2382  -9.2374  -9.2153  -9.2152  -9.1382  -9.1365  -9.0184
    -9.0161  -7.5602  -7.5597  -6.2901  -5.9896  -5.9895  -5.9895  -5.9888
    -5.9490  -5.9480  -5.8649  -5.8643  -5.4681  -5.2628  -5.2607  -5.1961
    -5.1836  -5.1827  -5.1801  -5.1265  -5.1262  -4.9750  -4.9744  -4.9129
    -4.9104  -4.8234  -4.8233  -4.6178  -4.6177  -4.4294  -4.3752  -4.3730
    -4.2040  -4.2037  -4.1078  -4.1049  -4.0836  -3.7881  -3.7874  -3.7586
    -3.7584  -3.6084  -3.6062  -3.2924  -3.2919  -3.2716  -3.2697  -3.1489
    -3.1427  -3.1398  -3.0044  -3.0042  -2.8297  -2.8275  -2.7076  -2.6936
    -2.4379  -2.4376  -2.4302  -2.4273  -2.2860  -2.2071  -2.2006  -2.1995
    -2.0611  -2.0593  -2.0238  -2.0183  -1.8483  -1.8478  -1.7089  -1.7002
    -1.6821  -1.6700  -1.6449  -1.5108  -1.4058  -1.4012  -1.3203  -1.3200
    -1.3056  -1.2282  -1.2229  -1.2209  -1.1666  -1.1602  -1.1410  -1.1393
    -1.1225  -1.1174  -1.0173  -0.9358  -0.7837  -0.5450  -0.5405  -0.5401
    -0.5379  -0.3844  -0.3736  -0.3130  -0.2471  -0.2469  -0.2346  -0.2006
    -0.1670  -0.1516  -0.1169  -0.1143  -0.0811   0.0284   0.0293   0.1139
     0.3227   0.3229   0.3737   0.5207   0.7699   0.9216   1.3443   1.7477
     2.0746   2.0759   2.4308   2.4338   2.7703   2.7744   2.8819   2.8846
     2.9459   2.9592   3.0597   3.0641   3.0728   3.0816   3.0866   3.1101
     3.1421   3.1976   3.1997   3.2106   3.2539   3.3116   3.3119   3.3851
     3.3864   3.4809   3.5337   3.5343   3.5795   3.5932   3.6632   3.6887
     3.7143   3.7223   3.7367   3.7504   3.7745   3.7861   3.7969   3.7972
     3.8063

          k = 0.0000-0.0296 0.0000 ( 58052 PWs)   bands (ev):

   -56.3581 -56.3546 -56.3460 -56.3452 -56.3382 -56.3179 -56.3155 -56.3130
   -56.3120 -56.3093 -32.7217 -32.6882 -32.6857 -32.6845 -32.6784 -32.6719
   -32.6639 -32.6626 -32.6531 -32.6501 -32.6492 -32.6406 -32.6385 -32.6308
   -32.6291 -32.6281 -32.6226 -32.6217 -32.5948 -32.5927 -32.4778 -32.4725
   -32.4642 -32.4627 -32.4542 -32.4315 -32.4287 -32.4249 -32.4238 -32.4203
   -17.9894 -17.9786 -17.2392 -17.2386 -15.7749 -15.7650 -14.3915 -14.3906
   -14.2249 -14.2234 -14.0671 -14.0641 -13.9478 -13.9473 -13.8554 -13.7949
   -13.7892 -13.7829 -13.7796 -13.7546 -13.6428 -13.6385 -13.1881 -13.1839
   -13.1805 -13.1777 -12.2493 -12.2458 -11.8617 -11.8612 -11.3696 -11.3664
   -11.3649 -11.3596 -11.1729 -11.1690 -10.7451 -10.7420 -10.6973 -10.6966
   -10.6712 -10.6676  -9.6443  -9.6373  -9.6313  -9.6243  -9.6221  -9.6129
    -9.5217  -9.5199  -9.3631  -9.3605  -9.2642  -9.2638  -9.1865  -9.0866
    -7.5928  -7.5920  -6.9379  -6.9372  -6.9321  -6.9318  -6.1875  -6.1766
    -5.4106  -5.4088  -5.4009  -5.3924  -5.2603  -5.2591  -5.2499  -5.2496
    -5.1893  -5.1875  -5.1628  -5.1613  -5.1068  -5.0959  -4.9946  -4.9941
    -4.9794  -4.8605  -4.6543  -4.4739  -4.3762  -4.3757  -4.3730  -4.3725
    -4.3402  -4.3383  -4.0036  -3.9997  -3.9927  -3.9919  -3.9729  -3.7417
    -3.7398  -3.7001  -3.6969  -3.5215  -3.3801  -3.3616  -3.3614  -3.1695
    -3.1642  -3.1477  -3.1117  -3.1102  -2.9796  -2.9787  -2.5004  -2.4984
    -2.3672  -2.3661  -2.2161  -2.2148  -2.2093  -2.1901  -2.1205  -2.0776
    -2.0766  -2.0472  -2.0423  -2.0300  -1.9181  -1.9073  -1.7435  -1.7384
    -1.6136  -1.5973  -1.5949  -1.4842  -1.4782  -1.4455  -1.3047  -1.2982
    -1.2898  -1.2737  -1.2721  -1.2652  -1.2646  -1.2625  -1.0653  -1.0527
    -1.0366  -1.0154  -0.9637  -0.9622  -0.8515  -0.8498  -0.6900  -0.6883
    -0.5321  -0.5252  -0.3113  -0.3099  -0.2263  -0.2098  -0.2029  -0.1287
    -0.0711  -0.0702  -0.0584  -0.0256   0.0748   0.0838   0.0934   0.0970
     0.2404   0.2424   0.3217   0.3222   0.7856   0.7904   1.6120   1.6157
     2.0535   2.0559   2.4837   2.4840   2.7300   2.7302   2.9191   2.9321
     2.9538   2.9601   3.0000   3.0009   3.1195   3.1249   3.1319   3.1325
     3.1703   3.1928   3.3264   3.3329   3.3404   3.3671   3.4117   3.4130
     3.4350   3.4388   3.4624   3.4662   3.5034   3.5048   3.5333   3.5838
     3.6411   3.6430   3.7133   3.8244   3.8282   3.8560   3.8790   3.8839
     3.9966

          k = 0.0337 0.0000 0.0000 ( 58063 PWs)   bands (ev):

   -56.3581 -56.3546 -56.3461 -56.3451 -56.3382 -56.3180 -56.3145 -56.3144
   -56.3112 -56.3094 -32.7158 -32.7064 -32.6796 -32.6785 -32.6771 -32.6699
   -32.6665 -32.6581 -32.6541 -32.6529 -32.6513 -32.6416 -32.6348 -32.6346
   -32.6255 -32.6236 -32.6196 -32.6190 -32.6158 -32.5838 -32.4780 -32.4728
   -32.4648 -32.4628 -32.4545 -32.4322 -32.4278 -32.4277 -32.4231 -32.4210
   -17.9565 -17.5831 -17.5831 -16.4747 -16.4727 -15.1134 -14.7575 -14.7575
   -14.6682 -14.6682 -14.3589 -14.1916 -14.1636 -14.1607 -14.0308 -14.0308
   -13.8464 -13.8453 -13.7416 -13.7399 -13.7262 -13.7226 -12.5947 -12.5156
   -12.5113 -12.5023 -12.2198 -12.0285 -12.0279 -11.7262 -11.4730 -11.4728
   -11.3674 -11.3674 -10.9261 -10.8866 -10.8862 -10.8278 -10.8276 -10.7892
   -10.7889 -10.1315  -9.9943  -9.8445  -9.8434  -9.8309  -9.7189  -9.7185
    -9.6004  -9.5996  -9.4948  -9.4931  -9.2024  -9.2023  -9.1489  -9.1488
    -8.5732  -7.7346  -6.7685  -6.7684  -6.3542  -6.1320  -5.9917  -5.9907
    -5.7003  -5.7001  -5.6983  -5.3162  -5.3161  -5.1532  -5.1525  -5.0135
    -5.0131  -4.8942  -4.8004  -4.7622  -4.7606  -4.6883  -4.6825  -4.6181
    -4.6178  -4.4681  -4.4673  -4.3691  -4.3682  -4.3221  -4.2226  -4.2219
    -4.2175  -4.2162  -4.0914  -4.0910  -4.0211  -4.0187  -3.6224  -3.6222
    -3.6002  -3.5983  -3.5863  -3.3812  -3.3810  -3.3654  -3.3636  -3.2374
    -3.2374  -3.1745  -3.0237  -3.0207  -2.9638  -2.9636  -2.7244  -2.6829
    -2.6807  -2.6771  -2.6677  -2.4627  -2.4626  -2.4053  -2.4046  -2.2577
    -2.1764  -2.1724  -2.1643  -2.1620  -1.9563  -1.9505  -1.9407  -1.9279
    -1.9269  -1.8471  -1.8413  -1.8355  -1.8339  -1.7929  -1.5928  -1.5650
    -1.4045  -1.3739  -1.3498  -1.3479  -1.2580  -1.2580  -1.1835  -0.8971
    -0.8933  -0.6892  -0.6430  -0.6428  -0.6006  -0.5729  -0.5411  -0.5371
    -0.5049  -0.4074  -0.3601  -0.3246  -0.2945  -0.2767  -0.2562  -0.2512
    -0.2271  -0.2225  -0.1463  -0.1190  -0.0637   0.0030   0.0219   0.1074
     0.2184   0.2382   0.2748   0.5098   0.5290   0.8044   1.4534   1.7584
     2.1665   2.1679   2.4194   2.4211   2.7417   2.7466   2.7467   2.8395
     2.8671   2.8704   2.8950   2.8990   2.9149   2.9240   2.9556   2.9632
     2.9672   3.0574   3.0615   3.1017   3.1344   3.1398   3.2521   3.2576
     3.2653   3.3131   3.3274   3.3322   3.4545   3.4573   3.4900   3.5842
     3.6031   3.6125   3.7394   3.8280   3.8333   3.8395   3.8767   3.8894
     4.0395

          k = 0.0337-0.0296 0.0000 ( 57978 PWs)   bands (ev):

   -56.3580 -56.3546 -56.3460 -56.3452 -56.3382 -56.3179 -56.3155 -56.3130
   -56.3119 -56.3093 -32.7217 -32.6880 -32.6856 -32.6843 -32.6781 -32.6716
   -32.6636 -32.6621 -32.6531 -32.6504 -32.6495 -32.6409 -32.6388 -32.6309
   -32.6293 -32.6284 -32.6227 -32.6217 -32.5948 -32.5927 -32.4780 -32.4728
   -32.4644 -32.4630 -32.4545 -32.4320 -32.4293 -32.4254 -32.4243 -32.4207
   -17.8683 -17.8576 -17.1192 -17.1186 -15.6581 -15.6482 -15.0292 -15.0185
   -14.3219 -14.3217 -14.3052 -14.3045 -14.1491 -14.1476 -13.9900 -13.9872
   -13.8757 -13.8752 -13.7888 -13.6875 -13.5343 -13.5299 -13.0435 -13.0392
   -12.4726 -12.4625 -12.1737 -12.1702 -11.7898 -11.7893 -11.3062 -11.3059
   -11.1394 -11.1356 -10.8974 -10.8940 -10.7940 -10.7934 -10.7076 -10.7021
   -10.6571 -10.6539 -10.0686 -10.0615  -9.9540  -9.9525  -9.8019  -9.8000
    -9.7115  -9.7087  -9.6034  -9.6030  -9.5496  -9.4489  -8.3021  -8.2953
    -7.8909  -7.8852  -7.5652  -7.5644  -6.0283  -6.0173  -5.8454  -5.8398
    -5.7303  -5.7297  -5.6076  -5.5968  -5.1919  -5.1824  -4.8526  -4.8506
    -4.8500  -4.8500  -4.8115  -4.8107  -4.7539  -4.7518  -4.6719  -4.6710
    -4.6098  -4.5450  -4.5437  -4.4419  -4.4280  -4.4277  -4.3668  -4.2577
    -4.2458  -4.2441  -4.0024  -4.0017  -3.9256  -3.6864  -3.6862  -3.6096
    -3.5904  -3.5871  -3.5802  -3.5777  -3.4677  -3.4657  -3.3118  -3.3110
    -3.2628  -3.2256  -3.1660  -3.1653  -3.0206  -3.0198  -2.6708  -2.6567
    -2.5382  -2.5352  -2.4634  -2.4421  -2.4407  -2.3953  -2.3228  -2.3206
    -2.2045  -2.2037  -2.1562  -2.1094  -2.1084  -2.0821  -2.0714  -2.0560
    -1.8689  -1.8688  -1.8248  -1.8213  -1.6780  -1.6773  -1.5824  -1.5062
    -1.4995  -1.4968  -1.1782  -1.1745  -1.1123  -1.1067  -0.9798  -0.8946
    -0.8783  -0.8751  -0.8742  -0.8370  -0.5572  -0.5551  -0.5078  -0.5036
    -0.4431  -0.4412  -0.4152  -0.4139  -0.3520  -0.3256  -0.2709  -0.2702
    -0.2555  -0.2165  -0.1845  -0.1604  -0.0925  -0.0894   0.1602   0.1631
     0.2877   0.2934   0.4105   0.4124   0.5614   0.5675   1.7225   1.7259
     2.0384   2.0410   2.5460   2.5462   2.7225   2.7230   2.8257   2.8264
     2.8290   2.8579   2.8585   2.8645   2.8984   2.9293   2.9388   2.9722
     2.9974   2.9996   3.1386   3.1416   3.1832   3.1976   3.2744   3.2788
     3.2962   3.3021   3.3942   3.4008   3.4081   3.4281   3.4886   3.5400
     3.6535   3.6606   3.8081   3.8173   3.8554   3.8599   4.0040   4.0208
     4.0518

          k = 0.0674 0.0000 0.0000 ( 57942 PWs)   bands (ev):

   -56.3580 -56.3546 -56.3461 -56.3451 -56.3382 -56.3180 -56.3145 -56.3144
   -56.3112 -56.3094 -32.7156 -32.7062 -32.6789 -32.6777 -32.6766 -32.6696
   -32.6658 -32.6585 -32.6536 -32.6526 -32.6515 -32.6426 -32.6357 -32.6355
   -32.6258 -32.6238 -32.6198 -32.6192 -32.6157 -32.5838 -32.4785 -32.4734
   -32.4653 -32.4634 -32.4552 -32.4334 -32.4288 -32.4288 -32.4240 -32.4219
   -17.5941 -17.2222 -17.2222 -16.1624 -16.1197 -16.1177 -15.7978 -15.7978
   -14.7254 -14.7233 -14.3291 -14.3291 -14.1541 -14.0198 -13.9780 -13.9749
   -13.8608 -13.8606 -13.6827 -13.6827 -13.5856 -13.5840 -13.0263 -13.0262
   -12.2842 -12.0414 -11.8450 -11.8447 -11.4497 -11.4433 -11.3220 -11.3218
   -11.3100 -11.2523 -11.2515 -11.0484 -10.9767 -10.9763 -10.5355 -10.3970
   -10.3960 -10.3347 -10.3344 -10.2867 -10.2049 -10.2047 -10.1865 -10.1860
   -10.0794 -10.0779  -9.2668  -9.2651  -9.1008  -8.9991  -8.9991  -7.6754
    -7.6752  -7.3868  -7.3867  -6.9335  -6.4877  -6.4876  -6.4053  -6.4039
    -6.3079  -5.6964  -5.2672  -5.2666  -5.1076  -5.1070  -5.0668  -4.9880
    -4.9875  -4.5528  -4.5511  -4.5189  -4.5187  -4.4517  -4.3409  -4.3407
    -4.1896  -4.1895  -4.1834  -4.1823  -4.0534  -4.0440  -4.0092  -3.7216
    -3.7202  -3.6631  -3.6624  -3.6127  -3.5258  -3.5244  -3.4849  -3.4386
    -3.4384  -3.3769  -3.3750  -3.3380  -3.1592  -3.1589  -3.1549  -3.0871
    -3.0871  -3.0227  -3.0204  -3.0165  -3.0144  -2.9592  -2.9541  -2.8628
    -2.8620  -2.7638  -2.7596  -2.7144  -2.6647  -2.6642  -2.5491  -2.5461
    -2.5174  -2.5172  -2.5089  -2.2334  -2.2170  -2.1847  -2.1806  -2.1731
    -2.0987  -2.0866  -2.0840  -1.9489  -1.9302  -1.9243  -1.7381  -1.7375
    -1.3924  -1.3874  -1.2375  -1.2374  -1.1515  -1.1510  -1.1020  -1.0490
    -1.0457  -1.0353  -0.8174  -0.8095  -0.7927  -0.6926  -0.6921  -0.6497
    -0.6490  -0.6148  -0.6098  -0.4291  -0.4281  -0.3666  -0.3650  -0.3436
    -0.2652  -0.2471  -0.2334  -0.1940  -0.1532  -0.0313  -0.0036   0.0078
     0.0219   0.0829   0.0841   0.5066   0.7057   1.4078   1.6104   1.6110
     1.7775   2.1517   2.2552   2.2587   2.3905   2.3943   2.4987   2.5062
     2.5258   2.5293   2.6313   2.6321   2.6448   2.6809   2.6830   2.7990
     2.8073   2.8108   2.8597   2.8772   2.9025   2.9076   2.9387   2.9389
     2.9438   2.9483   2.9498   3.1545   3.1650   3.3084   3.3857   3.3923
     3.4183   3.4228   3.4353   3.4727   3.5162   3.5188   3.8288   3.8334
     3.9538

          k = 0.0674-0.0296 0.0000 ( 57938 PWs)   bands (ev):

   -56.3580 -56.3546 -56.3460 -56.3452 -56.3382 -56.3179 -56.3155 -56.3130
   -56.3119 -56.3093 -32.7215 -32.6875 -32.6854 -32.6841 -32.6775 -32.6709
   -32.6629 -32.6609 -32.6528 -32.6512 -32.6505 -32.6417 -32.6395 -32.6310
   -32.6299 -32.6291 -32.6228 -32.6217 -32.5948 -32.5927 -32.4785 -32.4735
   -32.4650 -32.4636 -32.4552 -32.4332 -32.4305 -32.4263 -32.4253 -32.4216
   -17.5062 -17.4955 -16.7605 -16.7600 -16.0763 -16.0656 -15.3469 -15.3465
   -15.3090 -15.2993 -14.1054 -14.1049 -13.9774 -13.9759 -13.9520 -13.9386
   -13.8205 -13.8175 -13.7111 -13.7107 -13.6274 -13.5358 -13.2113 -13.2069
   -12.0485 -12.0468 -11.9934 -11.9901 -11.6101 -11.6096 -11.3931 -11.3901
   -11.0777 -11.0774 -11.0696 -11.0662 -10.7026 -10.6945 -10.4954 -10.4926
   -10.4128 -10.4111 -10.2648 -10.2643 -10.2618 -10.2615 -10.1629 -10.1396
   -10.1391 -10.0537  -9.8764  -9.8758  -8.5373  -8.5304  -8.5217  -8.5189
    -7.6087  -7.6080  -6.8294  -6.8209  -6.8187  -6.8139  -6.1614  -6.1609
    -5.8900  -5.8895  -5.5934  -5.5823  -5.4123  -5.4100  -4.7585  -4.7493
    -4.7055  -4.6999  -4.6041  -4.5120  -4.4511  -4.4502  -4.3716  -4.3692
    -4.2112  -4.2105  -3.9341  -3.9333  -3.9219  -3.9092  -3.7756  -3.7743
    -3.7443  -3.7382  -3.6244  -3.6242  -3.5572  -3.5556  -3.5554  -3.5516
    -3.4515  -3.4490  -3.3437  -3.3432  -3.3263  -3.3237  -3.3063  -3.1092
    -3.1084  -3.0351  -3.0348  -2.9503  -2.9481  -2.9047  -2.8702  -2.8698
    -2.8689  -2.8564  -2.7285  -2.7267  -2.7134  -2.7122  -2.7080  -2.5901
    -2.3899  -2.3884  -2.3658  -2.3270  -2.3264  -2.2660  -2.2648  -2.2611
    -2.2609  -2.2559  -1.8658  -1.8640  -1.7250  -1.7241  -1.5518  -1.4921
    -1.2801  -1.2781  -1.2740  -1.2731  -1.2646  -1.2185  -1.2114  -1.2112
    -0.9712  -0.9704  -0.8470  -0.8442  -0.7802  -0.7757  -0.7466  -0.7189
    -0.6492  -0.6470  -0.4971  -0.4943  -0.4860  -0.4848  -0.4181  -0.3835
    -0.2981  -0.2973  -0.2173  -0.2168  -0.1053  -0.1051   0.1448   0.1478
     0.2698   0.2699   0.3770   0.3778   0.5281   0.5370   1.8656   1.8670
     2.0173   2.0201   2.2570   2.2802   2.4535   2.4535   2.4642   2.5001
     2.5765   2.6272   2.6540   2.6551   2.6715   2.6718   2.6774   2.6914
     2.7443   2.7443   2.8273   2.8325   2.8457   2.8684   2.8943   2.8943
     2.9605   2.9930   3.0408   3.0413   3.2763   3.2852   3.3365   3.3543
     3.4010   3.4283   3.6217   3.6374   3.7198   3.7207   3.7726   3.7727
     3.9271

          k =-0.1011 0.0000 0.0000 ( 57974 PWs)   bands (ev):

   -56.3580 -56.3546 -56.3461 -56.3451 -56.3382 -56.3180 -56.3145 -56.3144
   -56.3112 -56.3094 -32.7155 -32.7061 -32.6785 -32.6773 -32.6763 -32.6695
   -32.6655 -32.6586 -32.6534 -32.6525 -32.6515 -32.6431 -32.6363 -32.6360
   -32.6259 -32.6239 -32.6199 -32.6194 -32.6157 -32.5839 -32.4788 -32.4738
   -32.4656 -32.4637 -32.4556 -32.4341 -32.4294 -32.4294 -32.4245 -32.4223
   -16.9977 -16.9897 -16.6286 -16.6286 -16.6207 -16.6206 -15.5367 -15.5354
   -15.5293 -15.5265 -14.0248 -13.9219 -13.8656 -13.8623 -13.7887 -13.7887
   -13.7657 -13.7656 -13.7612 -13.7608 -13.5762 -13.5760 -13.4952 -13.4936
   -11.8633 -11.8055 -11.7700 -11.7679 -11.6478 -11.6464 -11.5945 -11.5934
   -11.1616 -11.1608 -11.1329 -11.1314 -11.1079 -11.1057 -10.6854 -10.5856
   -10.5706 -10.5677 -10.4705 -10.4700 -10.4365 -10.4363 -10.3317 -10.3304
    -9.1729  -9.1727  -9.1711  -9.1710  -8.3629  -8.3621  -7.6822  -7.6818
    -7.6811  -7.6801  -7.5027  -7.5024  -7.5013  -7.5012  -6.0635  -6.0633
    -6.0624  -6.0623  -5.1833  -5.1818  -5.1810  -5.1785  -5.0656  -4.9133
    -4.8011  -4.7996  -4.6550  -4.6541  -4.4903  -4.4901  -4.4669  -4.4642
    -4.4105  -4.4093  -3.8989  -3.8081  -3.8067  -3.8005  -3.6801  -3.6699
    -3.6400  -3.6400  -3.6335  -3.6333  -3.6331  -3.6330  -3.5733  -3.5709
    -3.4885  -3.4813  -3.2971  -3.2928  -3.1789  -3.1754  -3.0115  -3.0112
    -3.0036  -3.0035  -2.9899  -2.9874  -2.8569  -2.8555  -2.8478  -2.7832
    -2.7806  -2.7799  -2.7509  -2.7500  -2.4177  -2.4174  -2.3830  -2.3606
    -2.2113  -2.2080  -2.1341  -2.1120  -2.1118  -2.0613  -2.0179  -2.0128
    -1.9418  -1.9411  -1.6892  -1.6612  -1.6567  -1.6534  -1.6354  -1.6262
    -1.3884  -1.3335  -1.3235  -1.3201  -1.2281  -1.2278  -1.0480  -1.0429
    -0.9666  -0.9631  -0.9292  -0.9287  -0.8584  -0.8579  -0.8249  -0.8244
    -0.7928  -0.7412  -0.7409  -0.7090  -0.4984  -0.4966  -0.4328  -0.4271
    -0.3830  -0.3753  -0.3144  -0.3048  -0.2003  -0.1914  -0.1769  -0.1333
    -0.1139  -0.1056   0.5382   0.5921   0.6133   0.6347   1.4739   1.5595
     1.6591   1.6689   1.7683   1.7748   1.7805   1.7888   1.8733   1.8824
     1.8844   1.9230   2.3552   2.3849   2.4149   2.4388   2.4642   2.4730
     2.7931   2.7975   2.8392   2.8407   2.8641   2.9076   2.9142   2.9150
     2.9305   2.9379   2.9430   2.9448   2.9773   2.9794   3.2595   3.2607
     3.2935   3.3134   3.3136   3.3714   3.8206   3.8210   3.8574   3.8591
     4.0736

          k =-0.1011-0.0296 0.0000 ( 57984 PWs)   bands (ev):

   -56.3580 -56.3546 -56.3460 -56.3452 -56.3382 -56.3179 -56.3155 -56.3130
   -56.3119 -56.3093 -32.7214 -32.6873 -32.6853 -32.6840 -32.6771 -32.6705
   -32.6625 -32.6603 -32.6521 -32.6516 -32.6515 -32.6421 -32.6399 -32.6311
   -32.6302 -32.6295 -32.6229 -32.6217 -32.5948 -32.5927 -32.4787 -32.4738
   -32.4653 -32.4640 -32.4556 -32.4338 -32.4311 -32.4269 -32.4259 -32.4220
   -16.9107 -16.9024 -16.8997 -16.8919 -16.1710 -16.1703 -16.1628 -16.1625
   -14.7401 -14.7271 -14.7264 -14.7214 -13.9807 -13.9805 -13.8786 -13.8769
   -13.7198 -13.7167 -13.6147 -13.6143 -13.5428 -13.4482 -12.6871 -12.6850
   -12.6828 -12.6808 -11.8091 -11.8061 -11.7524 -11.7490 -11.4102 -11.4101
   -11.3649 -11.3644 -11.0336 -11.0303 -10.6549 -10.6541 -10.5542 -10.5520
   -10.4812 -10.4787 -10.4376 -10.3794 -10.3791 -10.3271 -10.1843 -10.1807
   -10.1786 -10.1770  -8.4025  -8.4024  -8.4023  -8.4023  -8.1729  -8.1725
    -8.1628  -8.1625  -6.9019  -6.9011  -6.8992  -6.8982  -6.3944  -6.3943
    -6.3921  -6.3918  -5.2581  -5.2567  -5.2511  -5.2501  -4.9667  -4.9557
    -4.8124  -4.8007  -4.6710  -4.6146  -4.1928  -4.1843  -4.1807  -4.1795
    -4.1698  -4.1672  -4.0189  -4.0142  -3.9300  -3.9297  -3.8403  -3.8396
    -3.8176  -3.8153  -3.7214  -3.7201  -3.6213  -3.6195  -3.6152  -3.6143
    -3.5839  -3.5066  -3.2437  -3.2431  -3.1998  -3.1957  -3.1269  -3.1174
    -2.9976  -2.9962  -2.9196  -2.9167  -2.8902  -2.8479  -2.8448  -2.7928
    -2.7907  -2.4418  -2.3941  -2.3917  -2.3684  -2.3436  -2.3418  -2.2552
    -2.2318  -2.2102  -2.1927  -2.1403  -2.1397  -2.0730  -2.0727  -2.0566
    -2.0557  -1.9450  -1.8392  -1.7787  -1.7509  -1.7501  -1.6909  -1.6899
    -1.5488  -1.5474  -1.5361  -1.5349  -1.0586  -1.0578  -1.0562  -1.0258
    -0.9971  -0.9971  -0.9430  -0.9281  -0.7755  -0.7752  -0.7554  -0.7551
    -0.6199  -0.6185  -0.5301  -0.5109  -0.5083  -0.5026  -0.4653  -0.4651
    -0.3963  -0.3962  -0.1957  -0.1902  -0.1899  -0.1869  -0.0415  -0.0380
     0.0045   0.0086   0.2274   0.2319   0.2854   0.2861   1.5752   1.5900
     1.6795   1.6810   1.7292   1.7315   1.8004   1.8347   1.8352   1.8963
     2.0580   2.0589   2.1013   2.1047   2.7181   2.7182   2.7642   2.7645
     2.7966   2.8361   2.8383   2.8424   2.8821   2.8839   2.8926   2.9270
     2.9628   2.9731   2.9892   2.9960   3.0715   3.0905   3.1002   3.1239
     3.2371   3.2383   3.2640   3.2652   3.5915   3.5920   3.6413   3.6414
     3.8341

     the Fermi energy is     1.2806 ev

!    total energy              =   -2323.03685361 Ry
     Harris-Foulkes estimate   =   -2323.03685312 Ry
     estimated scf accuracy    <       0.00000050 Ry

     The total energy is the sum of the following terms:

     one-electron contribution =  -19217.68517530 Ry
     hartree contribution      =    9690.37725142 Ry
     xc contribution           =    -590.81305423 Ry
     ewald contribution        =    7795.09222547 Ry
     smearing contrib. (-TS)   =      -0.00810098 Ry

     convergence has been achieved in  17 iterations

     Forces acting on atoms (Ry/au):


     negative rho (up, down):  3.297E-02 0.000E+00
     atom    1 type  1   force =    -0.00874770    0.00009823    0.01782865
     atom    2 type  1   force =    -0.00898091    0.00000000    0.01762679
     atom    3 type  1   force =    -0.00874770   -0.00009823    0.01782865
     atom    4 type  1   force =    -0.00827018   -0.00027257    0.01813549
     atom    5 type  1   force =    -0.00827018    0.00027257    0.01813549
     atom    6 type  1   force =     0.00834956    0.00001821   -0.02087270
     atom    7 type  1   force =     0.00834956   -0.00001821   -0.02087270
     atom    8 type  1   force =     0.00840019   -0.00013131   -0.02089025
     atom    9 type  1   force =     0.00842374    0.00000000   -0.02088760
     atom   10 type  1   force =     0.00840019    0.00013131   -0.02089025
     atom   11 type  2   force =     0.02971631   -0.00002902   -0.01630825
     atom   12 type  2   force =     0.02973728    0.00000000   -0.01630169
     atom   13 type  2   force =     0.02971631    0.00002902   -0.01630825
     atom   14 type  2   force =     0.02973944    0.00006066   -0.01628756
     atom   15 type  2   force =     0.02973944   -0.00006066   -0.01628756
     atom   16 type  2   force =    -0.02711429    0.00008840    0.00527069
     atom   17 type  2   force =    -0.02711429   -0.00008840    0.00527069
     atom   18 type  2   force =    -0.02638779   -0.00049680    0.00594630
     atom   19 type  2   force =    -0.02674298    0.00000000    0.00677138
     atom   20 type  2   force =    -0.02638779    0.00049680    0.00594630
     atom   21 type  2   force =     0.00531462   -0.00001055    0.00537261
     atom   22 type  2   force =     0.00533453    0.00000000    0.00550891
     atom   23 type  2   force =     0.00531462    0.00001055    0.00537261
     atom   24 type  2   force =     0.00527469    0.00000061    0.00516929
     atom   25 type  2   force =     0.00527469   -0.00000061    0.00516929
     atom   26 type  2   force =    -0.00523460   -0.00005094   -0.00405804
     atom   27 type  2   force =    -0.00523460    0.00005094   -0.00405804
     atom   28 type  2   force =    -0.00524292    0.00013023   -0.00413007
     atom   29 type  2   force =    -0.00524126    0.00000000   -0.00379633
     atom   30 type  2   force =    -0.00524292   -0.00013023   -0.00413007
     atom   31 type  2   force =    -0.03541470   -0.00002551   -0.00955765
     atom   32 type  2   force =    -0.03543810    0.00000000   -0.00955245
     atom   33 type  2   force =    -0.03541470    0.00002551   -0.00955765
     atom   34 type  2   force =    -0.03543619    0.00005868   -0.00953031
     atom   35 type  2   force =    -0.03543619   -0.00005868   -0.00953031
     atom   36 type  2   force =     0.03209813    0.00015918   -0.00344060
     atom   37 type  2   force =     0.03209813   -0.00015918   -0.00344060
     atom   38 type  2   force =     0.03243565   -0.00076418   -0.00225399
     atom   39 type  2   force =     0.03343874    0.00000000   -0.00099233
     atom   40 type  2   force =     0.03243565    0.00076418   -0.00225399
     atom   41 type  3   force =    -0.00044676   -0.00744137    0.00420467
     atom   42 type  3   force =    -0.00042661   -0.00795275    0.00154537
     atom   43 type  3   force =    -0.00039923   -0.00894127    0.00445022
     atom   44 type  3   force =    -0.00039570   -0.00839636    0.00712040
     atom   45 type  3   force =    -0.00053214   -0.00735784    0.00312222
     atom   46 type  3   force =    -0.00042745   -0.00773353    0.00071144
     atom   47 type  3   force =    -0.00072801   -0.00852051    0.00253581
     atom   48 type  3   force =    -0.00079154   -0.00814130    0.00503095
     atom   49 type  3   force =    -0.00042661    0.00795275    0.00154537
     atom   50 type  3   force =    -0.00044676    0.00744137    0.00420467
     atom   51 type  3   force =    -0.00039570    0.00839636    0.00712040
     atom   52 type  3   force =    -0.00039923    0.00894127    0.00445022
     atom   53 type  3   force =    -0.00042745    0.00773353    0.00071144
     atom   54 type  3   force =    -0.00053214    0.00735784    0.00312222
     atom   55 type  3   force =    -0.00079154    0.00814130    0.00503095
     atom   56 type  3   force =    -0.00072801    0.00852051    0.00253581
     atom   57 type  3   force =     0.00039295   -0.00871839    0.00351347
     atom   58 type  3   force =     0.00038368   -0.00842085    0.00612471
     atom   59 type  3   force =     0.00047234   -0.00795856    0.00541491
     atom   60 type  3   force =     0.00046067   -0.00819927    0.00272253
     atom   61 type  3   force =     0.00069808   -0.00870935    0.00258762
     atom   62 type  3   force =     0.00087697   -0.00848373    0.00485730
     atom   63 type  3   force =     0.00065841   -0.00837336    0.00442066
     atom   64 type  3   force =     0.00045860   -0.00856687    0.00205578
     atom   65 type  3   force =     0.00038368    0.00842085    0.00612471
     atom   66 type  3   force =     0.00039295    0.00871839    0.00351347
     atom   67 type  3   force =     0.00046067    0.00819927    0.00272253
     atom   68 type  3   force =     0.00047234    0.00795856    0.00541491
     atom   69 type  3   force =     0.00087697    0.00848373    0.00485730
     atom   70 type  3   force =     0.00069808    0.00870935    0.00258762
     atom   71 type  3   force =     0.00045860    0.00856687    0.00205578
     atom   72 type  3   force =     0.00065841    0.00837336    0.00442066

     Total force =     0.171155     Total SCF correction =     0.001635

     BFGS Geometry Optimization

     number of scf cycles    =   1
     number of bfgs steps    =   0

     energy   new            =   -2323.0368536146 Ry

     new trust radius        =       0.0367029754 bohr
     new conv_thr            =       0.0000010000 Ry


ATOMIC_POSITIONS (crystal)
Ti       0.327512378   0.050003077   0.105119381
Ti       0.327487434   0.250000000   0.105115108
Ti       0.327512378   0.449996923   0.105119381
Ti       0.327563451   0.649991462   0.105125876
Ti       0.327563451   0.850008538   0.105125876
Ti       0.825719039   0.150000570  -0.000441814
Ti       0.825719039   0.349999430  -0.000441814
Ti       0.825724454   0.549995887  -0.000442186
Ti       0.825726972   0.750000000  -0.000442130
Ti       0.825724454   0.950004113  -0.000442186
S        0.617055348   0.049999091   0.939791802
S        0.617057591   0.250000000   0.939791941
S        0.617055348   0.450000909   0.939791802
S        0.617057822   0.650001900   0.939792240
S        0.617057822   0.849998100   0.939792240
S        0.536496955   0.150002769   0.164716565
S        0.536496955   0.349997231   0.164716565
S        0.536574659   0.549984438   0.164730866
S        0.536536669   0.750000000   0.164748331
S        0.536574659   0.950015562   0.164730866
S        0.825258433   0.049999669   0.070311723
S        0.825260562   0.250000000   0.070314608
S        0.825258433   0.450000331   0.070311723
S        0.825254162   0.650000019   0.070307419
S        0.825254162   0.849999981   0.070307419
S        0.328023127   0.149998404   0.034458103
S        0.328023127   0.350001596   0.034458103
S        0.328022236   0.550004079   0.034456578
S        0.328022414   0.750000000   0.034463643
S        0.328022236   0.949995921   0.034456578
S        0.037786173   0.049999201   0.938755692
S        0.037783670   0.250000000   0.938755802
S        0.037786173   0.450000799   0.938755692
S        0.037783875   0.650001838   0.938756271
S        0.037783875   0.849998162   0.938756271
S        0.115133099   0.150004986   0.165711173
S        0.115133099   0.349995014   0.165711173
S        0.115169198   0.549976063   0.165736290
S        0.115276485   0.750000000   0.165762995
S        0.115169198   0.950023937   0.165736290
C        0.374952216   0.208121904   0.292934601
C        0.374954371   0.458105886   0.292878311
C        0.374957300   0.708074921   0.292939798
C        0.374957678   0.958091990   0.292996318
C        0.874943084   0.208124521   0.292911688
C        0.874954281   0.458112752   0.292860659
C        0.874922135   0.708088101   0.292899276
C        0.874915340   0.958099980   0.292952091
C        0.374954371   0.041894114   0.292878311
C        0.374952216   0.291878096   0.292934601
C        0.374957678   0.541908010   0.292996318
C        0.374957300   0.791925079   0.292939798
C        0.874954281   0.041887248   0.292860659
C        0.874943084   0.291875479   0.292911688
C        0.874915340   0.541900020   0.292952091
C        0.874922135   0.791911899   0.292899276
C        0.125042028   0.083081902   0.292919970
C        0.125041037   0.333091223   0.292975242
C        0.125050519   0.583105704   0.292960218
C        0.125049271   0.833098163   0.292903228
C        0.625074664   0.083082186   0.292900372
C        0.625093797   0.333089253   0.292948415
C        0.625070421   0.583092710   0.292939173
C        0.625049050   0.833086649   0.292889115
C        0.125041037   0.166908777   0.292975242
C        0.125042028   0.416918098   0.292919970
C        0.125049271   0.666901837   0.292903228
C        0.125050519   0.916894296   0.292960218
C        0.625093797   0.166910747   0.292948415
C        0.625074664   0.416917814   0.292900372
C        0.625049050   0.666913351   0.292889115
C        0.625070421   0.916907290   0.292939173



     Writing output data file TiS3.save
     Check: negative starting charge=   -0.024324
     NEW-OLD atomic charge density approx. for the potential

     Check: negative/imaginary core charge=   -0.000006    0.000000
     Check: negative starting charge=   -0.024264

     negative rho (up, down):  3.270E-02 0.000E+00

     total cpu time spent up to now is     9200.3 secs

     per-process dynamical memory:   362.1 Mb

     Self-consistent Calculation

     iteration #  1     ecut=    39.00 Ry     beta=0.30
     Davidson diagonalization with overlap
     ethr =  1.00E-06,  avg # of iterations =  6.2

     negative rho (up, down):  3.278E-02 0.000E+00

     total cpu time spent up to now is    10333.3 secs

     total energy              =   -2323.05639023 Ry
     Harris-Foulkes estimate   =   -2323.05821642 Ry
     estimated scf accuracy    <       0.00475437 Ry

     iteration #  2     ecut=    39.00 Ry     beta=0.30
     Davidson diagonalization with overlap
     ethr =  1.11E-06,  avg # of iterations =  8.5

     negative rho (up, down):  3.280E-02 0.000E+00

     total cpu time spent up to now is    10899.1 secs

     total energy              =   -2323.05627570 Ry
     Harris-Foulkes estimate   =   -2323.05853351 Ry
     estimated scf accuracy    <       0.01214638 Ry

     iteration #  3     ecut=    39.00 Ry     beta=0.30
     Davidson diagonalization with overlap
     ethr =  1.11E-06,  avg # of iterations =  8.8

     negative rho (up, down):  3.285E-02 0.000E+00

     total cpu time spent up to now is    11382.5 secs

     total energy              =   -2323.05729752 Ry
     Harris-Foulkes estimate   =   -2323.05746120 Ry
     estimated scf accuracy    <       0.00064973 Ry

     iteration #  4     ecut=    39.00 Ry     beta=0.30
     Davidson diagonalization with overlap
     ethr =  1.52E-07,  avg # of iterations =  6.5

     negative rho (up, down):  3.291E-02 0.000E+00

     total cpu time spent up to now is    11944.7 secs

     total energy              =   -2323.05737502 Ry
     Harris-Foulkes estimate   =   -2323.05754041 Ry
     estimated scf accuracy    <       0.00095123 Ry

     iteration #  5     ecut=    39.00 Ry     beta=0.30
     Davidson diagonalization with overlap
     ethr =  1.52E-07,  avg # of iterations =  3.4

     negative rho (up, down):  3.295E-02 0.000E+00

     total cpu time spent up to now is    12354.5 secs

     total energy              =   -2323.05745069 Ry
     Harris-Foulkes estimate   =   -2323.05747100 Ry
     estimated scf accuracy    <       0.00016240 Ry

     iteration #  6     ecut=    39.00 Ry     beta=0.30
     Davidson diagonalization with overlap
     ethr =  3.79E-08,  avg # of iterations =  4.1

     negative rho (up, down):  3.298E-02 0.000E+00

     total cpu time spent up to now is    12779.9 secs

     total energy              =   -2323.05747256 Ry
     Harris-Foulkes estimate   =   -2323.05747163 Ry
     estimated scf accuracy    <       0.00002923 Ry

     iteration #  7     ecut=    39.00 Ry     beta=0.30
     Davidson diagonalization with overlap
     ethr =  6.83E-09,  avg # of iterations =  4.2

     negative rho (up, down):  3.299E-02 0.000E+00

     total cpu time spent up to now is    13352.2 secs

     total energy              =   -2323.05748259 Ry
     Harris-Foulkes estimate   =   -2323.05748347 Ry
     estimated scf accuracy    <       0.00002327 Ry

     iteration #  8     ecut=    39.00 Ry     beta=0.30
     Davidson diagonalization with overlap
     ethr =  5.44E-09,  avg # of iterations =  2.0

     negative rho (up, down):  3.301E-02 0.000E+00

     total cpu time spent up to now is    13730.4 secs

     total energy              =   -2323.05748387 Ry
     Harris-Foulkes estimate   =   -2323.05748430 Ry
     estimated scf accuracy    <       0.00000893 Ry

     iteration #  9     ecut=    39.00 Ry     beta=0.30
     Davidson diagonalization with overlap
     ethr =  2.09E-09,  avg # of iterations =  4.0

     negative rho (up, down):  3.301E-02 0.000E+00

     total cpu time spent up to now is    14170.5 secs

     total energy              =   -2323.05748553 Ry
     Harris-Foulkes estimate   =   -2323.05748530 Ry
     estimated scf accuracy    <       0.00000175 Ry

     iteration # 10     ecut=    39.00 Ry     beta=0.30
     Davidson diagonalization with overlap
     ethr =  4.08E-10,  avg # of iterations =  4.8

     negative rho (up, down):  3.302E-02 0.000E+00

     total cpu time spent up to now is    14669.6 secs

     total energy              =   -2323.05748597 Ry
     Harris-Foulkes estimate   =   -2323.05748604 Ry
     estimated scf accuracy    <       0.00000179 Ry

     iteration # 11     ecut=    39.00 Ry     beta=0.30
     Davidson diagonalization with overlap
     ethr =  4.08E-10,  avg # of iterations =  2.0

     negative rho (up, down):  3.304E-02 0.000E+00

     total cpu time spent up to now is    15055.6 secs

     End of self-consistent calculation

          k = 0.0000 0.0000 0.0000 ( 58029 PWs)   bands (ev):

   -56.3146 -56.3111 -56.3022 -56.3012 -56.2945 -56.2761 -56.2726 -56.2726
   -56.2694 -56.2676 -32.6796 -32.6701 -32.6444 -32.6422 -32.6397 -32.6312
   -32.6277 -32.6188 -32.6171 -32.6158 -32.6120 -32.6040 -32.5973 -32.5972
   -32.5881 -32.5862 -32.5836 -32.5831 -32.5784 -32.5479 -32.4293 -32.4239
   -32.4158 -32.4136 -32.4054 -32.3836 -32.3792 -32.3791 -32.3745 -32.3725
   -18.0711 -17.6966 -17.6966 -16.5841 -16.5836 -14.7734 -14.7733 -14.5809
   -14.4230 -14.3903 -14.3883 -14.2649 -14.2648 -14.0722 -14.0720 -13.9815
   -13.9800 -13.8670 -13.8612 -13.5370 -13.5370 -13.5314 -13.5314 -12.9078
   -12.9066 -12.7256 -12.2611 -12.0594 -12.0587 -11.8021 -11.7995 -11.7425
   -11.4712 -11.4710 -10.8004 -10.7999 -10.6208 -10.5906 -10.5904 -10.5765
   -10.5763 -10.5696 -10.5695  -9.6438  -9.5224  -9.4957  -9.4894  -9.3713
    -9.3710  -9.2143  -9.2126  -9.1635  -9.1633  -9.0999  -9.0984  -9.0766
    -9.0643  -7.4886  -7.4850  -6.2910  -5.9530  -5.9525  -5.9483  -5.9483
    -5.8780  -5.8771  -5.8658  -5.8657  -5.4530  -5.2569  -5.2542  -5.2485
    -5.1839  -5.1723  -5.1721  -5.1263  -5.1249  -4.9380  -4.9364  -4.9022
    -4.8999  -4.8810  -4.8810  -4.6361  -4.6344  -4.4430  -4.4124  -4.4110
    -4.2603  -4.2603  -4.1136  -4.1106  -4.0133  -3.8619  -3.8607  -3.6885
    -3.6883  -3.5974  -3.5952  -3.3703  -3.3701  -3.2883  -3.2858  -3.2394
    -3.2242  -3.2208  -2.8919  -2.8917  -2.7929  -2.7794  -2.7613  -2.7587
    -2.5411  -2.5409  -2.4425  -2.4311  -2.3682  -2.2890  -2.2141  -2.2125
    -2.0525  -2.0464  -2.0130  -2.0110  -1.8350  -1.8097  -1.8095  -1.6455
    -1.6243  -1.5972  -1.5411  -1.4783  -1.3827  -1.3799  -1.2945  -1.2914
    -1.2800  -1.1986  -1.1955  -1.1681  -1.1423  -1.1360  -1.1195  -1.1188
    -1.0952  -1.0921  -0.9811  -0.9005  -0.8311  -0.5212  -0.5195  -0.4788
    -0.4744  -0.3954  -0.3881  -0.3348  -0.2388  -0.2379  -0.2169  -0.1643
    -0.1355  -0.1181  -0.0962  -0.0933  -0.0608   0.0550   0.0554   0.1446
     0.3522   0.3524   0.3764   0.5279   0.8319   0.9517   1.3679   1.7672
     2.1013   2.1028   2.4702   2.4734   2.7966   2.8007   2.8993   2.9019
     2.9714   2.9874   3.0475   3.0914   3.1134   3.1139   3.1225   3.1476
     3.1726   3.1957   3.2338   3.2454   3.3217   3.3615   3.3625   3.4381
     3.4394   3.5378   3.5813   3.5901   3.6269   3.6339   3.6710   3.7310
     3.7351   3.7435   3.7509   3.7578   3.7946   3.7986   3.8115   3.8127
     3.8238

          k = 0.0000-0.0296 0.0000 ( 58052 PWs)   bands (ev):

   -56.3146 -56.3111 -56.3021 -56.3013 -56.2945 -56.2759 -56.2736 -56.2711
   -56.2701 -56.2674 -32.6855 -32.6529 -32.6491 -32.6479 -32.6394 -32.6328
   -32.6249 -32.6236 -32.6163 -32.6145 -32.6112 -32.6034 -32.6015 -32.5935
   -32.5917 -32.5908 -32.5853 -32.5843 -32.5589 -32.5569 -32.4292 -32.4240
   -32.4154 -32.4139 -32.4054 -32.3834 -32.3808 -32.3767 -32.3758 -32.3722
   -17.9825 -17.9720 -17.2324 -17.2298 -15.7641 -15.7573 -14.5284 -14.5281
   -14.3811 -14.3797 -14.2208 -14.2190 -14.1127 -14.1123 -14.0208 -13.9288
   -13.7879 -13.7821 -13.7773 -13.7717 -13.6384 -13.6353 -13.1716 -13.1711
   -13.1646 -13.1615 -12.2123 -12.2090 -11.8075 -11.8069 -11.3909 -11.3902
   -11.3853 -11.3821 -11.1076 -11.1010 -10.6947 -10.6898 -10.6325 -10.6318
   -10.6089 -10.6058  -9.6626  -9.6610  -9.6560  -9.6513  -9.6019  -9.5992
    -9.4825  -9.4809  -9.3396  -9.3361  -9.2256  -9.2254  -9.1625  -9.0485
    -7.5330  -7.5311  -6.8923  -6.8875  -6.8846  -6.8801  -6.1888  -6.1783
    -5.4114  -5.4015  -5.3959  -5.3947  -5.2250  -5.2212  -5.2121  -5.2119
    -5.1895  -5.1883  -5.1595  -5.1546  -5.1528  -5.1510  -4.9800  -4.9793
    -4.9717  -4.8391  -4.7138  -4.5353  -4.4404  -4.4397  -4.3518  -4.3505
    -4.2832  -4.2797  -4.0272  -4.0264  -3.9856  -3.9332  -3.9296  -3.7809
    -3.7809  -3.7507  -3.7460  -3.5071  -3.3919  -3.2923  -3.2920  -3.2532
    -3.2511  -3.1993  -3.1969  -3.1245  -3.0418  -3.0409  -2.5941  -2.5923
    -2.4583  -2.4574  -2.2090  -2.2090  -2.1650  -2.1440  -2.1200  -2.0826
    -2.0471  -2.0465  -2.0350  -2.0284  -1.9120  -1.8982  -1.6907  -1.6860
    -1.6071  -1.5294  -1.5276  -1.4648  -1.4448  -1.4138  -1.3293  -1.3236
    -1.2609  -1.2474  -1.2456  -1.2378  -1.2354  -1.2345  -1.0298  -1.0156
    -0.9985  -0.9807  -0.9263  -0.9263  -0.8388  -0.8368  -0.6963  -0.6948
    -0.5011  -0.4934  -0.3260  -0.3253  -0.2094  -0.1795  -0.1726  -0.1104
    -0.0477  -0.0426  -0.0302  -0.0030   0.1007   0.1008   0.1110   0.1234
     0.2994   0.3010   0.3325   0.3327   0.8110   0.8158   1.6360   1.6394
     2.0859   2.0882   2.5138   2.5139   2.7589   2.7589   2.9478   2.9508
     2.9772   2.9868   3.0322   3.0330   3.1548   3.1573   3.1592   3.1627
     3.1753   3.1909   3.3104   3.3272   3.3899   3.3906   3.4530   3.4534
     3.4847   3.4904   3.5168   3.5211   3.5537   3.5554   3.5750   3.6123
     3.6742   3.6767   3.7699   3.8726   3.8741   3.8930   3.9098   3.9143
     4.0208

          k = 0.0337 0.0000 0.0000 ( 58063 PWs)   bands (ev):

   -56.3146 -56.3111 -56.3022 -56.3012 -56.2945 -56.2760 -56.2726 -56.2726
   -56.2694 -56.2676 -32.6795 -32.6700 -32.6441 -32.6420 -32.6394 -32.6310
   -32.6275 -32.6189 -32.6169 -32.6157 -32.6121 -32.6045 -32.5978 -32.5977
   -32.5882 -32.5863 -32.5837 -32.5832 -32.5784 -32.5479 -32.4295 -32.4243
   -32.4160 -32.4139 -32.4058 -32.3841 -32.3798 -32.3797 -32.3750 -32.3730
   -17.9500 -17.5761 -17.5761 -16.4655 -16.4651 -15.1088 -14.7524 -14.7523
   -14.6598 -14.6598 -14.5014 -14.3548 -14.3162 -14.3143 -14.1985 -14.1983
   -14.0124 -14.0118 -13.9207 -13.9192 -13.7175 -13.7170 -12.6227 -12.4959
   -12.4847 -12.4810 -12.1845 -11.9834 -11.9828 -11.6430 -11.4106 -11.4104
   -11.3997 -11.3996 -10.8633 -10.8205 -10.8199 -10.8058 -10.8042 -10.7644
   -10.7644 -10.1758  -9.9492  -9.8020  -9.8012  -9.7799  -9.6658  -9.6655
    -9.5617  -9.5598  -9.4400  -9.4385  -9.2217  -9.2216  -9.0963  -9.0962
    -8.5182  -7.7978  -6.7357  -6.7356  -6.2684  -6.1314  -5.9194  -5.9179
    -5.7489  -5.7022  -5.7016  -5.3714  -5.3714  -5.1099  -5.1089  -4.9773
    -4.9757  -4.9069  -4.8039  -4.7801  -4.7783  -4.7265  -4.7219  -4.6203
    -4.6198  -4.4830  -4.4822  -4.3880  -4.3868  -4.3258  -4.2916  -4.2904
    -4.2401  -4.2391  -4.1226  -4.1220  -4.0215  -4.0188  -3.5708  -3.5687
    -3.5655  -3.5654  -3.5340  -3.3674  -3.3661  -3.3300  -3.3290  -3.3156
    -3.3155  -3.2613  -3.1039  -3.1002  -2.9711  -2.9707  -2.7718  -2.7610
    -2.7104  -2.7030  -2.7029  -2.4756  -2.4747  -2.3861  -2.3853  -2.3467
    -2.2956  -2.2550  -2.1712  -2.1712  -1.9336  -1.9256  -1.8825  -1.8810
    -1.8711  -1.8647  -1.8190  -1.7932  -1.7902  -1.7400  -1.5691  -1.5398
    -1.3780  -1.3474  -1.3245  -1.3217  -1.2131  -1.2131  -1.1270  -0.8674
    -0.8636  -0.7174  -0.6022  -0.5943  -0.5941  -0.5854  -0.5440  -0.5087
    -0.4871  -0.3615  -0.3274  -0.2927  -0.2762  -0.2591  -0.2343  -0.2336
    -0.1976  -0.1920  -0.1215  -0.0989  -0.0290   0.0323   0.0466   0.1231
     0.2577   0.2739   0.3145   0.5166   0.5578   0.8582   1.4744   1.7782
     2.1915   2.1931   2.4570   2.4585   2.7760   2.7761   2.7869   2.8045
     2.8756   2.8781   2.9215   2.9245   2.9417   2.9428   2.9863   2.9956
     3.0022   3.0832   3.0867   3.1565   3.1714   3.2217   3.3018   3.3050
     3.3131   3.3731   3.3883   3.3884   3.5114   3.5253   3.5498   3.6171
     3.6294   3.6501   3.7899   3.8077   3.8486   3.8569   3.8928   3.8979
     4.0900

          k = 0.0337-0.0296 0.0000 ( 57978 PWs)   bands (ev):

   -56.3146 -56.3111 -56.3021 -56.3013 -56.2944 -56.2759 -56.2736 -56.2711
   -56.2701 -56.2674 -32.6854 -32.6527 -32.6490 -32.6478 -32.6391 -32.6324
   -32.6245 -32.6230 -32.6164 -32.6148 -32.6114 -32.6038 -32.6018 -32.5936
   -32.5920 -32.5911 -32.5853 -32.5843 -32.5589 -32.5569 -32.4295 -32.4243
   -32.4157 -32.4142 -32.4058 -32.3839 -32.3813 -32.3773 -32.3763 -32.3726
   -17.8615 -17.8511 -17.1126 -17.1100 -15.6474 -15.6407 -15.0243 -15.0140
   -14.4503 -14.4502 -14.3184 -14.3160 -14.3133 -14.3120 -14.1488 -14.1472
   -14.0487 -14.0483 -13.9611 -13.8694 -13.5299 -13.5268 -13.0246 -13.0240
   -12.4548 -12.4445 -12.1357 -12.1324 -11.7350 -11.7345 -11.3290 -11.3272
   -11.0741 -11.0679 -10.8342 -10.8315 -10.7400 -10.7361 -10.7275 -10.7263
   -10.6061 -10.6011 -10.0820 -10.0787  -9.9089  -9.9086  -9.7503  -9.7487
    -9.6714  -9.6677  -9.5488  -9.5485  -9.5108  -9.3943  -8.3353  -8.3304
    -7.8535  -7.8463  -7.5046  -7.5027  -6.0281  -6.0174  -5.7896  -5.7814
    -5.6969  -5.6950  -5.6580  -5.6494  -5.1997  -5.1891  -4.9121  -4.9113
    -4.8666  -4.8652  -4.7732  -4.7710  -4.7559  -4.7543  -4.6886  -4.6877
    -4.6712  -4.5032  -4.4710  -4.4682  -4.4355  -4.4353  -4.3742  -4.2510
    -4.2491  -4.2481  -4.0078  -4.0071  -3.9257  -3.7002  -3.7000  -3.6307
    -3.6282  -3.5739  -3.5344  -3.5343  -3.5327  -3.5313  -3.3146  -3.3142
    -3.2755  -3.2537  -3.2473  -3.1896  -3.0705  -3.0696  -2.6615  -2.6482
    -2.5841  -2.5810  -2.5342  -2.5322  -2.4917  -2.4128  -2.4125  -2.4098
    -2.1806  -2.1793  -2.1547  -2.0762  -2.0516  -2.0442  -2.0417  -2.0357
    -1.8590  -1.8590  -1.7707  -1.7675  -1.6485  -1.6484  -1.5660  -1.4768
    -1.4354  -1.4331  -1.1855  -1.1805  -1.1186  -1.1153  -0.9505  -0.8543
    -0.8490  -0.8459  -0.8355  -0.8067  -0.5543  -0.5521  -0.5140  -0.5123
    -0.4165  -0.4146  -0.3694  -0.3676  -0.3212  -0.2930  -0.2486  -0.2311
    -0.2108  -0.1835  -0.1562  -0.1366  -0.0644  -0.0612   0.1909   0.1972
     0.3019   0.3105   0.4458   0.4467   0.5953   0.6003   1.7439   1.7471
     2.0685   2.0711   2.5740   2.5741   2.7509   2.7525   2.8124   2.8207
     2.8599   2.8861   2.8906   2.8973   2.9431   2.9595   2.9656   3.0010
     3.0340   3.0365   3.1663   3.1710   3.1962   3.2043   3.3297   3.3361
     3.3452   3.3493   3.4505   3.4598   3.4723   3.4786   3.5463   3.5726
     3.6793   3.6846   3.8582   3.8639   3.8974   3.9109   4.0544   4.0593
     4.0694

          k = 0.0674 0.0000 0.0000 ( 57942 PWs)   bands (ev):

   -56.3146 -56.3111 -56.3022 -56.3012 -56.2944 -56.2760 -56.2726 -56.2725
   -56.2693 -56.2676 -32.6793 -32.6698 -32.6436 -32.6415 -32.6387 -32.6307
   -32.6268 -32.6192 -32.6164 -32.6152 -32.6122 -32.6054 -32.5987 -32.5985
   -32.5884 -32.5865 -32.5840 -32.5835 -32.5783 -32.5480 -32.4301 -32.4249
   -32.4166 -32.4146 -32.4065 -32.3853 -32.3808 -32.3808 -32.3759 -32.3738
   -17.5879 -17.2156 -17.2156 -16.1575 -16.1109 -16.1105 -15.7923 -15.7923
   -14.7173 -14.7169 -14.3254 -14.3217 -14.3182 -14.2041 -14.1537 -14.1519
   -14.0500 -14.0497 -13.8693 -13.8693 -13.7853 -13.7838 -13.0147 -13.0146
   -12.3143 -11.9974 -11.7932 -11.7929 -11.3718 -11.3627 -11.2589 -11.2576
   -11.2575 -11.1826 -11.1812 -11.0864 -10.9100 -10.9096 -10.4611 -10.3646
   -10.3638 -10.3032 -10.3018 -10.2180 -10.1316 -10.1316 -10.1195 -10.1187
    -9.9949  -9.9936  -9.2782  -9.2777  -9.0918  -8.9451  -8.9451  -7.6985
    -7.6984  -7.3663  -7.3663  -6.9790  -6.5377  -6.5376  -6.3830  -6.3663
    -6.3651  -5.6942  -5.2671  -5.2665  -5.0749  -5.0731  -5.0167  -5.0155
    -4.9688  -4.5785  -4.5773  -4.5381  -4.5379  -4.4669  -4.2933  -4.2932
    -4.2472  -4.2469  -4.1950  -4.1937  -4.0508  -4.0430  -4.0082  -3.6997
    -3.6985  -3.6821  -3.6810  -3.6403  -3.5206  -3.5081  -3.5066  -3.4816
    -3.4816  -3.4440  -3.4050  -3.4047  -3.2293  -3.1372  -3.1360  -3.0683
    -3.0648  -3.0588  -3.0584  -3.0489  -3.0475  -3.0007  -2.9973  -2.9055
    -2.9047  -2.8497  -2.8437  -2.7440  -2.7437  -2.5948  -2.5925  -2.5893
    -2.4860  -2.4853  -2.4811  -2.2723  -2.2311  -2.2183  -2.1995  -2.1992
    -2.1841  -2.0277  -2.0248  -1.9137  -1.9135  -1.9077  -1.7546  -1.7545
    -1.3901  -1.3844  -1.2259  -1.2254  -1.1200  -1.1187  -1.1039  -1.0183
    -1.0159  -0.9891  -0.7741  -0.7651  -0.7304  -0.6629  -0.6624  -0.6128
    -0.6119  -0.5797  -0.5761  -0.3974  -0.3958  -0.3328  -0.3313  -0.3217
    -0.2814  -0.2234  -0.2111  -0.1515  -0.1246  -0.0080   0.0264   0.0370
     0.0555   0.0820   0.1043   0.5254   0.7543   1.4706   1.5585   1.6338
     1.7956   2.2302   2.2948   2.2981   2.4223   2.4262   2.5928   2.5995
     2.6146   2.6165   2.6964   2.7297   2.7306   2.7717   2.7732   2.8669
     2.8709   2.8963   2.9225   2.9348   2.9454   2.9484   2.9901   2.9911
     3.0073   3.0092   3.0403   3.2173   3.2305   3.3510   3.4135   3.4679
     3.4838   3.4897   3.5117   3.5496   3.5900   3.5947   3.9334   3.9382
     4.0071

          k = 0.0674-0.0296 0.0000 ( 57938 PWs)   bands (ev):

   -56.3146 -56.3111 -56.3021 -56.3013 -56.2944 -56.2759 -56.2736 -56.2710
   -56.2701 -56.2674 -32.6853 -32.6523 -32.6488 -32.6476 -32.6385 -32.6317
   -32.6237 -32.6217 -32.6166 -32.6157 -32.6119 -32.6046 -32.6025 -32.5938
   -32.5925 -32.5918 -32.5855 -32.5843 -32.5589 -32.5569 -32.4300 -32.4250
   -32.4163 -32.4148 -32.4065 -32.3850 -32.3825 -32.3782 -32.3773 -32.3735
   -17.4998 -17.4894 -16.7543 -16.7517 -16.0710 -16.0606 -15.3416 -15.3392
   -15.2987 -15.2921 -14.2754 -14.2753 -14.1629 -14.1615 -14.0026 -14.0010
   -13.9528 -13.9312 -13.9057 -13.9053 -13.8059 -13.7376 -13.2068 -13.2037
   -12.0317 -12.0313 -11.9472 -11.9442 -11.5511 -11.5506 -11.3212 -11.3189
   -11.0094 -11.0092 -11.0044 -10.9988 -10.7099 -10.7022 -10.4214 -10.4211
   -10.3589 -10.3561 -10.1963 -10.1949 -10.1921 -10.1921 -10.0958 -10.0596
   -10.0593  -9.9683  -9.8867  -9.8845  -8.5365  -8.5355  -8.5235  -8.5164
    -7.5533  -7.5511  -6.8752  -6.8665  -6.8619  -6.8571  -6.1351  -6.1335
    -5.9397  -5.9389  -5.5915  -5.5808  -5.4033  -5.4015  -4.7642  -4.7536
    -4.6461  -4.6411  -4.6327  -4.5396  -4.4122  -4.4098  -4.3854  -4.3837
    -4.2262  -4.2253  -3.9289  -3.9259  -3.9232  -3.9110  -3.7999  -3.7960
    -3.7678  -3.7424  -3.6896  -3.6884  -3.5844  -3.5817  -3.5474  -3.5471
    -3.4905  -3.4886  -3.3878  -3.3871  -3.3394  -3.3292  -3.3282  -3.1815
    -3.1798  -3.0590  -3.0570  -2.9719  -2.9685  -2.9273  -2.9185  -2.9183
    -2.9040  -2.8767  -2.7272  -2.6964  -2.6947  -2.6381  -2.6288  -2.5788
    -2.4661  -2.4647  -2.4281  -2.3501  -2.3491  -2.3269  -2.3255  -2.2937
    -2.2509  -2.2501  -1.8491  -1.8472  -1.7308  -1.7297  -1.5303  -1.4808
    -1.2476  -1.2471  -1.2410  -1.2375  -1.2366  -1.1963  -1.1790  -1.1788
    -0.9485  -0.9479  -0.8358  -0.8326  -0.7803  -0.7762  -0.7025  -0.6743
    -0.6111  -0.6104  -0.4635  -0.4608  -0.4536  -0.4529  -0.3835  -0.3575
    -0.2790  -0.2776  -0.1730  -0.1725  -0.0784  -0.0784   0.1719   0.1758
     0.2927   0.2929   0.4161   0.4168   0.5398   0.5507   1.8919   1.8931
     2.0422   2.0451   2.3228   2.3541   2.4775   2.5227   2.5493   2.5506
     2.6673   2.6985   2.6998   2.7163   2.7234   2.7239   2.7504   2.7609
     2.8070   2.8078   2.9101   2.9153   2.9306   2.9394   2.9626   2.9631
     2.9933   3.0245   3.1030   3.1034   3.3512   3.3589   3.4118   3.4343
     3.5028   3.5354   3.6965   3.7211   3.8058   3.8069   3.8794   3.8800
     3.9838

          k =-0.1011 0.0000 0.0000 ( 57974 PWs)   bands (ev):

   -56.3146 -56.3111 -56.3022 -56.3012 -56.2944 -56.2760 -56.2726 -56.2726
   -56.2693 -56.2676 -32.6792 -32.6697 -32.6433 -32.6412 -32.6383 -32.6305
   -32.6265 -32.6193 -32.6161 -32.6150 -32.6122 -32.6059 -32.5992 -32.5990
   -32.5885 -32.5866 -32.5841 -32.5836 -32.5783 -32.5480 -32.4304 -32.4253
   -32.4169 -32.4149 -32.4069 -32.3859 -32.3814 -32.3814 -32.3763 -32.3743
   -16.9924 -16.9839 -16.6228 -16.6228 -16.6143 -16.6143 -15.5292 -15.5285
   -15.5201 -15.5200 -14.2129 -14.1201 -14.0582 -14.0563 -13.9654 -13.9650
   -13.8414 -13.8409 -13.7567 -13.7565 -13.7166 -13.7161 -13.7088 -13.7073
   -11.8036 -11.8006 -11.7914 -11.7400 -11.5745 -11.5743 -11.5281 -11.5273
   -11.0916 -11.0901 -11.0676 -11.0656 -11.0190 -11.0168 -10.6098 -10.4982
   -10.4940 -10.4899 -10.3801 -10.3797 -10.3557 -10.3545 -10.2325 -10.2313
    -9.1413  -9.1412  -9.1401  -9.1400  -8.4015  -8.4006  -7.6858  -7.6851
    -7.6843  -7.6832  -7.5239  -7.5237  -7.5226  -7.5226  -6.0899  -6.0897
    -6.0878  -6.0876  -5.1635  -5.1604  -5.1594  -5.1592  -5.0705  -4.9008
    -4.8906  -4.8879  -4.6633  -4.6623  -4.4851  -4.4832  -4.4783  -4.4781
    -4.4154  -4.4141  -3.9320  -3.8263  -3.6981  -3.6971  -3.6956  -3.6892
    -3.6596  -3.6595  -3.5911  -3.5883  -3.5857  -3.5854  -3.5845  -3.5841
    -3.5227  -3.5161  -3.3107  -3.3073  -3.1762  -3.1734  -3.1103  -3.1102
    -3.1046  -3.1046  -2.9701  -2.9688  -2.9098  -2.8405  -2.8165  -2.8161
    -2.7342  -2.7328  -2.7131  -2.7124  -2.4866  -2.4864  -2.4303  -2.4075
    -2.2923  -2.2889  -2.2275  -2.1941  -2.1939  -2.1480  -2.1106  -2.1051
    -2.0393  -2.0386  -1.6868  -1.6708  -1.6648  -1.6490  -1.6462  -1.6356
    -1.3827  -1.3348  -1.3184  -1.3152  -1.2198  -1.2197  -1.0397  -1.0344
    -0.9605  -0.9576  -0.8953  -0.8952  -0.8403  -0.8399  -0.7718  -0.7715
    -0.7514  -0.7114  -0.7111  -0.6875  -0.4429  -0.4409  -0.3971  -0.3917
    -0.3221  -0.3114  -0.2780  -0.2673  -0.1674  -0.1415  -0.1388  -0.0879
    -0.0808  -0.0723   0.5571   0.5731   0.5871   0.6306   1.5801   1.6462
     1.8164   1.8229   1.9344   1.9419   1.9474   1.9511   1.9574   2.0107
     2.0760   2.0778   2.4238   2.4513   2.4550   2.4968   2.4995   2.5175
     2.8644   2.8692   2.9053   2.9062   2.9378   2.9439   2.9560   2.9713
     2.9732   2.9970   3.0072   3.0098   3.0337   3.0351   3.3399   3.3418
     3.3671   3.3868   3.3872   3.4397   3.9406   3.9411   3.9795   3.9810
     4.0919

          k =-0.1011-0.0296 0.0000 ( 57984 PWs)   bands (ev):

   -56.3146 -56.3111 -56.3021 -56.3013 -56.2944 -56.2759 -56.2736 -56.2710
   -56.2701 -56.2674 -32.6852 -32.6521 -32.6488 -32.6475 -32.6381 -32.6313
   -32.6232 -32.6208 -32.6168 -32.6164 -32.6121 -32.6049 -32.6028 -32.5938
   -32.5928 -32.5921 -32.5855 -32.5843 -32.5589 -32.5569 -32.4303 -32.4254
   -32.4166 -32.4152 -32.4069 -32.3856 -32.3832 -32.3788 -32.3778 -32.3740
   -16.9049 -16.8965 -16.8946 -16.8860 -16.1657 -16.1628 -16.1567 -16.1547
   -14.7313 -14.7198 -14.7167 -14.7143 -14.1702 -14.1701 -14.0784 -14.0768
   -13.9166 -13.9152 -13.8242 -13.8238 -13.7444 -13.6634 -12.6814 -12.6793
   -12.6789 -12.6761 -11.7364 -11.7343 -11.6865 -11.6834 -11.3374 -11.3372
   -11.2985 -11.2980 -10.9685 -10.9632 -10.5796 -10.5776 -10.4659 -10.4640
   -10.4028 -10.3991 -10.3547 -10.2852 -10.2851 -10.2245 -10.1363 -10.1307
   -10.1307 -10.1274  -8.3940  -8.3927  -8.3919  -8.3907  -8.2087  -8.2083
    -8.2003  -8.1999  -6.9149  -6.9139  -6.9132  -6.9118  -6.3919  -6.3907
    -6.3897  -6.3884  -5.3081  -5.3060  -5.3038  -5.3013  -4.9719  -4.9616
    -4.8000  -4.7883  -4.6899  -4.6189  -4.2017  -4.1872  -4.1478  -4.1472
    -4.1462  -4.1446  -4.0032  -3.9977  -3.9450  -3.9442  -3.8517  -3.8513
    -3.8493  -3.8474  -3.7452  -3.7451  -3.5934  -3.5490  -3.5478  -3.5403
    -3.5394  -3.5378  -3.3221  -3.3217  -3.2246  -3.2197  -3.1572  -3.0807
    -2.9844  -2.9834  -2.9229  -2.9206  -2.9180  -2.9157  -2.8640  -2.8587
    -2.8571  -2.5343  -2.4468  -2.4448  -2.3836  -2.3830  -2.3620  -2.3121
    -2.2968  -2.2443  -2.2213  -2.2059  -2.2057  -2.1098  -2.1084  -2.0542
    -2.0522  -2.0462  -1.9454  -1.8153  -1.7616  -1.7615  -1.7119  -1.7108
    -1.5638  -1.5627  -1.5570  -1.5557  -1.0384  -1.0379  -1.0007  -0.9981
    -0.9963  -0.9651  -0.9292  -0.9126  -0.7369  -0.7366  -0.7199  -0.7197
    -0.5851  -0.5836  -0.4785  -0.4727  -0.4715  -0.4611  -0.4167  -0.4164
    -0.3544  -0.3542  -0.1589  -0.1499  -0.1447  -0.1428  -0.0576  -0.0571
    -0.0038   0.0032   0.2616   0.2651   0.3264   0.3269   1.7076   1.7217
     1.8094   1.8113   1.8945   1.8991   1.9700   2.0237   2.0240   2.0903
     2.1077   2.1113   2.1522   2.1566   2.7544   2.7546   2.7929   2.7930
     2.8698   2.9017   2.9047   2.9128   2.9402   2.9408   2.9613   2.9895
     3.0029   3.0250   3.0561   3.0710   3.1285   3.1495   3.1565   3.1930
     3.3070   3.3081   3.3293   3.3303   3.6835   3.6841   3.7290   3.7293
     3.9531

     the Fermi energy is     1.3251 ev

!    total energy              =   -2323.05748621 Ry
     Harris-Foulkes estimate   =   -2323.05748618 Ry
     estimated scf accuracy    <       0.00000025 Ry

     The total energy is the sum of the following terms:

     one-electron contribution =  -19189.82140843 Ry
     hartree contribution      =    9676.66503614 Ry
     xc contribution           =    -590.98107229 Ry
     ewald contribution        =    7781.08772083 Ry
     smearing contrib. (-TS)   =      -0.00776246 Ry

     convergence has been achieved in  11 iterations

     Forces acting on atoms (Ry/au):


     negative rho (up, down):  3.304E-02 0.000E+00
     atom    1 type  1   force =    -0.00620543    0.00004653    0.00699585
     atom    2 type  1   force =    -0.00642666    0.00000000    0.00686299
     atom    3 type  1   force =    -0.00620543   -0.00004653    0.00699585
     atom    4 type  1   force =    -0.00581255   -0.00020214    0.00740375
     atom    5 type  1   force =    -0.00581255    0.00020214    0.00740375
     atom    6 type  1   force =     0.00581114    0.00004213   -0.01085511
     atom    7 type  1   force =     0.00581114   -0.00004213   -0.01085511
     atom    8 type  1   force =     0.00584250   -0.00007493   -0.01090383
     atom    9 type  1   force =     0.00586289    0.00000000   -0.01084589
     atom   10 type  1   force =     0.00584250    0.00007493   -0.01090383
     atom   11 type  2   force =     0.01258357   -0.00000950   -0.01706805
     atom   12 type  2   force =     0.01258521    0.00000000   -0.01704894
     atom   13 type  2   force =     0.01258357    0.00000950   -0.01706805
     atom   14 type  2   force =     0.01259819    0.00003746   -0.01706047
     atom   15 type  2   force =     0.01259819   -0.00003746   -0.01706047
     atom   16 type  2   force =    -0.01241309    0.00011623    0.00721752
     atom   17 type  2   force =    -0.01241309   -0.00011623    0.00721752
     atom   18 type  2   force =    -0.01179023   -0.00047188    0.00776476
     atom   19 type  2   force =    -0.01175676    0.00000000    0.00844838
     atom   20 type  2   force =    -0.01179023    0.00047188    0.00776476
     atom   21 type  2   force =     0.00374129   -0.00000987    0.00245301
     atom   22 type  2   force =     0.00373554    0.00000000    0.00253423
     atom   23 type  2   force =     0.00374129    0.00000987    0.00245301
     atom   24 type  2   force =     0.00375565   -0.00001363    0.00236727
     atom   25 type  2   force =     0.00375565    0.00001363    0.00236727
     atom   26 type  2   force =    -0.00368824   -0.00002841   -0.00291173
     atom   27 type  2   force =    -0.00368824    0.00002841   -0.00291173
     atom   28 type  2   force =    -0.00368147    0.00010249   -0.00290318
     atom   29 type  2   force =    -0.00367407    0.00000000   -0.00255479
     atom   30 type  2   force =    -0.00368147   -0.00010249   -0.00290318
     atom   31 type  2   force =    -0.01679776   -0.00000477   -0.01199395
     atom   32 type  2   force =    -0.01680638    0.00000000   -0.01197238
     atom   33 type  2   force =    -0.01679776    0.00000477   -0.01199395
     atom   34 type  2   force =    -0.01680693    0.00003606   -0.01198262
     atom   35 type  2   force =    -0.01680693   -0.00003606   -0.01198262
     atom   36 type  2   force =     0.01586553    0.00019239    0.00049345
     atom   37 type  2   force =     0.01586553   -0.00019239    0.00049345
     atom   38 type  2   force =     0.01631443   -0.00069754    0.00159667
     atom   39 type  2   force =     0.01693871    0.00000000    0.00271358
     atom   40 type  2   force =     0.01631443    0.00069754    0.00159667
     atom   41 type  3   force =     0.00050169    0.00964594    0.00457931
     atom   42 type  3   force =     0.00046394    0.01066910    0.00250558
[...]
   -14.1394 -14.1389 -13.9783 -13.9779 -13.8877 -13.8870 -13.0253 -13.0250
   -12.2923 -11.8516 -11.6293 -11.6290 -11.4323 -11.3002 -11.1085 -11.0739
   -11.0729 -11.0584 -10.9350 -10.9344 -10.7124 -10.7124 -10.3564 -10.3501
   -10.3441 -10.1987 -10.1952 -10.1445 -10.0263 -10.0259  -9.9801  -9.9785
    -9.8132  -9.8131  -9.2710  -9.2680  -9.1001  -8.9899  -8.9896  -7.6814
    -7.6810  -7.3844  -7.3843  -6.9440  -6.4994  -6.4991  -6.3997  -6.3967
    -6.3251  -5.6870  -5.2582  -5.2581  -5.1039  -5.1020  -5.0481  -4.9967
    -4.9949  -4.5240  -4.5236  -4.4805  -4.4744  -4.3335  -4.3335  -4.3139
    -4.1986  -4.1979  -4.0101  -4.0089  -3.9971  -3.9953  -3.9828  -3.6622
    -3.6619  -3.5524  -3.5482  -3.5458  -3.4262  -3.3998  -3.3997  -3.3724
    -3.3686  -3.3602  -3.3581  -3.3569  -3.2168  -3.0846  -3.0835  -3.0600
    -3.0581  -3.0043  -3.0033  -2.9848  -2.9830  -2.9222  -2.9221  -2.8565
    -2.8549  -2.8386  -2.8288  -2.7041  -2.7033  -2.6927  -2.6092  -2.6063
    -2.3853  -2.2847  -2.2780  -2.2474  -2.2327  -2.2009  -2.0855  -2.0827
    -2.0653  -1.8792  -1.8739  -1.8655  -1.7562  -1.7537  -1.7355  -1.7346
    -1.4280  -1.4217  -1.1944  -1.1890  -1.1576  -1.1058  -1.1017  -0.7843
    -0.7812  -0.7202  -0.6920  -0.6820  -0.5499  -0.5450  -0.5142  -0.4963
    -0.4920  -0.4607  -0.4567  -0.3382  -0.3337  -0.2865  -0.2849  -0.2612
    -0.1797  -0.1750  -0.1310  -0.0852  -0.0625  -0.0573  -0.0485  -0.0021
     0.0342   0.1445   0.1446   0.6762   0.8845   1.4186   1.5741   1.5958
     1.7042   2.2594   2.2611   2.3368   2.3486   2.3501   2.6779   2.6803
     2.7085   2.7134   2.7182   2.7967   2.8047   2.8539   2.8543   2.8908
     2.8959   2.9041   2.9199   2.9330   2.9343   2.9441   2.9984   3.0012
     3.0421   3.0427   3.0912   3.1459   3.1554   3.3214   3.3904   3.4051
     3.4464   3.4758   3.4814   3.5707   3.5751   3.6616   3.8833   3.8848
     3.9203

          k = 0.0674-0.0296 0.0000 ( 57938 PWs)   bands (ev):

   -56.3513 -56.3480 -56.3333 -56.3327 -56.3267 -56.3232 -56.3224 -56.3214
   -56.3193 -56.3164 -32.7119 -32.6876 -32.6766 -32.6738 -32.6636 -32.6560
   -32.6544 -32.6541 -32.6463 -32.6433 -32.6409 -32.6376 -32.6328 -32.6296
   -32.6284 -32.6258 -32.6226 -32.6118 -32.6015 -32.5985 -32.4431 -32.4383
   -32.4251 -32.4241 -32.4129 -32.4107 -32.4071 -32.4039 -32.4022 -32.3984
   -17.5027 -17.4976 -16.7597 -16.7592 -16.0732 -16.0680 -15.3466 -15.3460
   -15.3118 -15.2946 -14.3593 -14.3520 -14.2468 -14.2458 -14.1041 -14.1026
   -14.0020 -14.0020 -13.9885 -13.9336 -13.8962 -13.8427 -13.2137 -13.2077
   -12.0470 -12.0430 -11.7948 -11.7947 -11.3733 -11.3733 -11.0643 -11.0586
   -10.8183 -10.8160 -10.7843 -10.7842 -10.7009 -10.6989 -10.4057 -10.4053
   -10.3087 -10.3048 -10.1134 -10.1109 -10.0760 -10.0739  -9.9445  -9.9139
    -9.9136  -9.8793  -9.8762  -9.7729  -8.5342  -8.5336  -8.5286  -8.5178
    -7.5999  -7.5974  -6.8374  -6.8325  -6.8309  -6.8238  -6.1584  -6.1571
    -5.9051  -5.8980  -5.5804  -5.5767  -5.4176  -5.4033  -4.7470  -4.7446
    -4.6927  -4.6898  -4.5825  -4.4497  -4.4400  -4.4395  -4.2283  -4.2225
    -4.0621  -4.0609  -3.9421  -3.9292  -3.8961  -3.8885  -3.7566  -3.7506
    -3.6679  -3.6652  -3.6430  -3.5768  -3.5033  -3.4975  -3.4054  -3.4024
    -3.3812  -3.3806  -3.3535  -3.3534  -3.3155  -3.2190  -3.2183  -3.1721
    -3.1661  -3.0255  -3.0255  -2.9335  -2.9277  -2.8767  -2.8697  -2.8646
    -2.8614  -2.8557  -2.6977  -2.6970  -2.6432  -2.5422  -2.5421  -2.4701
    -2.4152  -2.4054  -2.3859  -2.2926  -2.2913  -2.2863  -2.2862  -2.2384
    -2.0553  -2.0547  -1.8013  -1.7990  -1.6845  -1.6842  -1.5218  -1.4863
    -1.2083  -1.2075  -1.2000  -1.1768  -1.0926  -1.0899  -0.9499  -0.9480
    -0.8180  -0.8162  -0.7811  -0.7783  -0.7526  -0.7449  -0.5634  -0.5348
    -0.4725  -0.4719  -0.4181  -0.4174  -0.3179  -0.3162  -0.3126  -0.3085
    -0.2726  -0.2703  -0.1299  -0.1284  -0.0472  -0.0462   0.1714   0.1727
     0.3704   0.3729   0.5250   0.5259   0.5417   0.5420   1.8380   1.8422
     1.9597   1.9653   2.4025   2.4297   2.5175   2.5615   2.6276   2.6290
     2.6744   2.6758   2.6937   2.6944   2.7560   2.7790   2.7810   2.7889
     2.8686   2.8693   2.9573   2.9599   2.9617   3.0026   3.0050   3.0068
     3.0202   3.0491   3.0640   3.0647   3.2855   3.2982   3.3718   3.4024
     3.5418   3.5937   3.6551   3.6983   3.7472   3.7495   3.7957   3.7958
     3.9029

          k =-0.1011 0.0000 0.0000 ( 57974 PWs)   bands (ev):

   -56.3513 -56.3480 -56.3333 -56.3327 -56.3267 -56.3226 -56.3224 -56.3221
   -56.3191 -56.3165 -32.7074 -32.6942 -32.6798 -32.6767 -32.6634 -32.6556
   -32.6478 -32.6467 -32.6430 -32.6419 -32.6418 -32.6355 -32.6352 -32.6324
   -32.6262 -32.6242 -32.6237 -32.6232 -32.6075 -32.5907 -32.4435 -32.4386
   -32.4256 -32.4243 -32.4132 -32.4113 -32.4065 -32.4060 -32.4018 -32.3990
   -16.9970 -16.9892 -16.6280 -16.6280 -16.6203 -16.6201 -15.5360 -15.5346
   -15.5296 -15.5248 -14.3135 -14.2124 -14.1663 -14.1656 -14.0674 -14.0668
   -13.9346 -13.9328 -13.8225 -13.8218 -13.7650 -13.7647 -13.7522 -13.7511
   -11.7784 -11.7754 -11.5601 -11.5127 -11.3462 -11.3448 -11.3067 -11.3058
   -11.0907 -11.0873 -10.8905 -10.8890 -10.8791 -10.8762 -10.5421 -10.4074
   -10.4064 -10.4019 -10.2648 -10.2640 -10.2106 -10.2089 -10.0454 -10.0451
    -9.1680  -9.1678  -9.1661  -9.1656  -8.3721  -8.3709  -7.6857  -7.6834
    -7.6823  -7.6811  -7.5083  -7.5082  -7.5075  -7.5075  -6.0704  -6.0699
    -6.0687  -6.0683  -5.1809  -5.1806  -5.1804  -5.1770  -5.0563  -4.9002
    -4.8216  -4.8194  -4.6479  -4.6478  -4.4749  -4.4748  -4.3850  -4.3742
    -4.2679  -4.2663  -3.8043  -3.7884  -3.7854  -3.7423  -3.6422  -3.6398
    -3.6276  -3.6265  -3.6254  -3.6221  -3.5128  -3.5125  -3.4747  -3.4680
    -3.4662  -3.4617  -3.2700  -3.2639  -3.1830  -3.1756  -3.1105  -3.1076
    -3.0413  -3.0406  -2.7996  -2.7897  -2.7840  -2.6825  -2.6394  -2.6364
    -2.5343  -2.5321  -2.4925  -2.4917  -2.4805  -2.4699  -2.3962  -2.3876
    -2.2373  -2.2348  -2.1593  -2.1507  -2.1499  -2.0831  -2.0796  -2.0256
    -2.0170  -2.0167  -1.7347  -1.6801  -1.6795  -1.6737  -1.6276  -1.6184
    -1.2966  -1.2953  -1.2568  -1.2397  -1.2003  -1.1996  -1.0774  -1.0732
    -0.9913  -0.9913  -0.7284  -0.7250  -0.6579  -0.6551  -0.6546  -0.6497
    -0.5956  -0.5916  -0.4694  -0.4215  -0.3055  -0.3043  -0.2881  -0.2825
    -0.2794  -0.2563  -0.2190  -0.2136  -0.1690  -0.1360  -0.1062  -0.1013
    -0.0734  -0.0716   0.5898   0.6189   0.6861   0.7724   1.5904   1.6291
     1.9669   1.9820   1.9948   2.1193   2.1272   2.1281   2.1752   2.1783
     2.3471   2.3471   2.3788   2.4024   2.4183   2.4390   2.4490   2.4658
     2.8501   2.8568   2.8682   2.8695   2.9459   2.9565   2.9643   2.9672
     2.9787   2.9789   2.9806   2.9853   2.9917   3.0528   3.3055   3.3263
     3.3278   3.3413   3.3537   3.3547   3.9127   3.9193   3.9320   3.9356
     3.9388

          k =-0.1011-0.0296 0.0000 ( 57984 PWs)   bands (ev):

   -56.3513 -56.3480 -56.3332 -56.3327 -56.3267 -56.3231 -56.3224 -56.3214
   -56.3193 -56.3164 -32.7118 -32.6876 -32.6766 -32.6738 -32.6632 -32.6553
   -32.6545 -32.6543 -32.6459 -32.6430 -32.6413 -32.6381 -32.6325 -32.6299
   -32.6288 -32.6259 -32.6226 -32.6117 -32.6015 -32.5985 -32.4434 -32.4386
   -32.4255 -32.4245 -32.4132 -32.4112 -32.4077 -32.4043 -32.4027 -32.3988
   -16.9071 -16.9020 -16.8993 -16.8941 -16.1700 -16.1699 -16.1626 -16.1617
   -14.7444 -14.7297 -14.7212 -14.7171 -14.2767 -14.2695 -14.1733 -14.1721
   -14.0316 -14.0300 -13.9333 -13.9333 -13.8661 -13.7790 -12.6886 -12.6858
   -12.6827 -12.6800 -11.5074 -11.5007 -11.4587 -11.4586 -11.1169 -11.1168
   -11.0889 -11.0887 -10.7857 -10.7844 -10.5101 -10.5017 -10.3692 -10.3656
   -10.2894 -10.2873 -10.1897 -10.1745 -10.1734 -10.1699 -10.1682 -10.1389
   -10.1385 -10.0148  -8.4030  -8.4013  -8.4008  -8.4007  -8.1791  -8.1785
    -8.1745  -8.1734  -6.9117  -6.9103  -6.8978  -6.8961  -6.3968  -6.3947
    -6.3944  -6.3929  -5.2699  -5.2682  -5.2632  -5.2612  -4.9535  -4.9514
    -4.7963  -4.7899  -4.5881  -4.4768  -4.2004  -4.1828  -4.1821  -4.1734
    -4.1719  -4.1640  -3.9628  -3.9619  -3.8125  -3.8095  -3.7210  -3.7196
    -3.7151  -3.7150  -3.6644  -3.6515  -3.6077  -3.6059  -3.6045  -3.6023
    -3.5320  -3.5099  -3.2810  -3.2807  -3.1655  -3.1646  -3.1301  -2.8374
    -2.8338  -2.8268  -2.8235  -2.8217  -2.8202  -2.8183  -2.7183  -2.7168
    -2.6060  -2.5978  -2.3634  -2.3610  -2.3543  -2.3009  -2.2881  -2.2515
    -2.2509  -2.2285  -2.2200  -2.1818  -2.1817  -2.0622  -2.0019  -2.0001
    -1.9523  -1.9087  -1.9079  -1.8817  -1.6794  -1.6771  -1.6533  -1.6524
    -1.5512  -1.5476  -1.5401  -1.5381  -1.0163  -1.0150  -1.0103  -1.0096
    -0.9578  -0.9575  -0.7693  -0.7412  -0.5721  -0.5713  -0.5134  -0.5130
    -0.4768  -0.4731  -0.4530  -0.4510  -0.3396  -0.3253  -0.2429  -0.2426
    -0.2364  -0.2358  -0.1695  -0.1669  -0.1490  -0.1441  -0.0675  -0.0606
     0.0048   0.0051   0.3415   0.3439   0.4297   0.4316   1.7851   1.7932
     1.8580   1.8616   2.0997   2.1031   2.1162   2.1236   2.1987   2.2157
     2.2211   2.2730   2.2734   2.3665   2.7106   2.7131   2.7210   2.7218
     2.8714   2.8893   2.8915   2.8954   2.9131   2.9137   2.9542   3.0112
     3.0133   3.0539   3.0686   3.0727   3.0976   3.1065   3.1270   3.1792
     3.2376   3.2478   3.2530   3.2635   3.6450   3.6478   3.6550   3.6555
     3.9099

     the Fermi energy is     1.3041 ev

!    total energy              =   -2323.10700835 Ry
     Harris-Foulkes estimate   =   -2323.10700820 Ry
     estimated scf accuracy    <       0.00000005 Ry

     The total energy is the sum of the following terms:

     one-electron contribution =  -18235.51827210 Ry
     hartree contribution      =    9199.62758318 Ry
     xc contribution           =    -590.34461168 Ry
     ewald contribution        =    7303.13751033 Ry
     smearing contrib. (-TS)   =      -0.00921808 Ry

     convergence has been achieved in  13 iterations

     Forces acting on atoms (Ry/au):


     negative rho (up, down):  3.074E-02 0.000E+00
     atom    1 type  1   force =    -0.00148481   -0.00000916   -0.00690763
     atom    2 type  1   force =    -0.00162099    0.00000000   -0.00714760
     atom    3 type  1   force =    -0.00148481    0.00000916   -0.00690763
     atom    4 type  1   force =    -0.00121919   -0.00002737   -0.00712367
     atom    5 type  1   force =    -0.00121919    0.00002737   -0.00712367
     atom    6 type  1   force =     0.00035564   -0.00004668    0.00080827
     atom    7 type  1   force =     0.00035564    0.00004668    0.00080827
     atom    8 type  1   force =     0.00041386    0.00013766    0.00123556
     atom    9 type  1   force =     0.00039076    0.00000000    0.00144006
     atom   10 type  1   force =     0.00041386   -0.00013766    0.00123556
     atom   11 type  2   force =    -0.00122978   -0.00018044    0.00544747
     atom   12 type  2   force =    -0.00126591    0.00000000    0.00524822
     atom   13 type  2   force =    -0.00122978    0.00018044    0.00544747
     atom   14 type  2   force =    -0.00116932    0.00013754    0.00578223
     atom   15 type  2   force =    -0.00116932   -0.00013754    0.00578223
     atom   16 type  2   force =     0.00040613    0.00004897   -0.00829261
     atom   17 type  2   force =     0.00040613   -0.00004897   -0.00829261
     atom   18 type  2   force =     0.00042307    0.00020232   -0.00888445
     atom   19 type  2   force =     0.00058475    0.00000000   -0.00950959
     atom   20 type  2   force =     0.00042307   -0.00020232   -0.00888445
     atom   21 type  2   force =     0.00022843    0.00007405   -0.00469317
     atom   22 type  2   force =     0.00021422    0.00000000   -0.00490275
     atom   23 type  2   force =     0.00022843   -0.00007405   -0.00469317
     atom   24 type  2   force =     0.00025232   -0.00000932   -0.00450244
     atom   25 type  2   force =     0.00025232    0.00000932   -0.00450244
     atom   26 type  2   force =    -0.00001050   -0.00001439   -0.00358350
     atom   27 type  2   force =    -0.00001050    0.00001439   -0.00358350
     atom   28 type  2   force =     0.00010843    0.00002924   -0.00338951
     atom   29 type  2   force =     0.00022259    0.00000000   -0.00357652
     atom   30 type  2   force =     0.00010843   -0.00002924   -0.00338951
     atom   31 type  2   force =     0.00138271   -0.00021455    0.00534631
     atom   32 type  2   force =     0.00137780    0.00000000    0.00516731
     atom   33 type  2   force =     0.00138271    0.00021455    0.00534631
     atom   34 type  2   force =     0.00139971    0.00013636    0.00564434
     atom   35 type  2   force =     0.00139971   -0.00013636    0.00564434
     atom   36 type  2   force =    -0.00026708   -0.00003696   -0.00807177
     atom   37 type  2   force =    -0.00026708    0.00003696   -0.00807177
     atom   38 type  2   force =    -0.00014119    0.00036607   -0.00826350
     atom   39 type  2   force =    -0.00023025    0.00000000   -0.00868331
     atom   40 type  2   force =    -0.00014119   -0.00036607   -0.00826350
     atom   41 type  3   force =    -0.00167154   -0.00124648    0.00147430
     atom   42 type  3   force =    -0.00087073   -0.00553431    0.00313204
     atom   43 type  3   force =    -0.00098179   -0.00686904    0.00325411
     atom   44 type  3   force =    -0.00176770   -0.00279312    0.00159636
     atom   45 type  3   force =    -0.00167361   -0.00142431    0.00259851
     atom   46 type  3   force =    -0.00070617   -0.00516692    0.00460716
     atom   47 type  3   force =    -0.00141775   -0.00583831    0.00517234
     atom   48 type  3   force =    -0.00233311   -0.00238024    0.00301885
     atom   49 type  3   force =    -0.00087073    0.00553431    0.00313204
     atom   50 type  3   force =    -0.00167154    0.00124648    0.00147430
     atom   51 type  3   force =    -0.00176770    0.00279312    0.00159636
     atom   52 type  3   force =    -0.00098179    0.00686904    0.00325411
     atom   53 type  3   force =    -0.00070617    0.00516692    0.00460716
     atom   54 type  3   force =    -0.00167361    0.00142431    0.00259851
     atom   55 type  3   force =    -0.00233311    0.00238024    0.00301885
     atom   56 type  3   force =    -0.00141775    0.00583831    0.00517234
     atom   57 type  3   force =     0.00088073   -0.00675543    0.00415174
     atom   58 type  3   force =     0.00175219   -0.00484653    0.00315377
     atom   59 type  3   force =     0.00226009   -0.00200010    0.00172616
     atom   60 type  3   force =     0.00148438   -0.00388540    0.00274222
     atom   61 type  3   force =     0.00087776   -0.00669256    0.00476941
     atom   62 type  3   force =     0.00179499   -0.00483232    0.00380000
     atom   63 type  3   force =     0.00199644   -0.00311862    0.00212872
     atom   64 type  3   force =     0.00109091   -0.00498684    0.00310446
     atom   65 type  3   force =     0.00175219    0.00484653    0.00315377
     atom   66 type  3   force =     0.00088073    0.00675543    0.00415174
     atom   67 type  3   force =     0.00148438    0.00388540    0.00274222
     atom   68 type  3   force =     0.00226009    0.00200010    0.00172616
     atom   69 type  3   force =     0.00179499    0.00483232    0.00380000
     atom   70 type  3   force =     0.00087776    0.00669256    0.00476941
     atom   71 type  3   force =     0.00109091    0.00498684    0.00310446
     atom   72 type  3   force =     0.00199644    0.00311862    0.00212872

     Total force =     0.051095     Total SCF correction =     0.000546

     number of scf cycles    =  11
     number of bfgs steps    =  10

     energy   old            =   -2323.1025753710 Ry
     energy   new            =   -2323.1070083501 Ry

     CASE: energy  _new < energy  _old

     new trust radius        =       0.0702374571 bohr
     new conv_thr            =       0.0000000951 Ry


ATOMIC_POSITIONS (crystal)
Ti       0.329183322   0.050140741   0.104792096
Ti       0.328556087   0.250000000   0.104597023
Ti       0.329183322   0.449859259   0.104792096
Ti       0.330282505   0.649879739   0.105317633
Ti       0.330282505   0.850120261   0.105317633
Ti       0.823578668   0.149964156  -0.007601820
Ti       0.823578668   0.350035844  -0.007601820
Ti       0.823754469   0.550072537  -0.007469864
Ti       0.823879598   0.750000000  -0.007304839
Ti       0.823754469   0.949927463  -0.007469864
S        0.619099029   0.049956627   0.930228494
S        0.619058475   0.250000000   0.930195808
S        0.619099029   0.450043373   0.930228494
S        0.619166538   0.650056179   0.930327432
S        0.619166538   0.849943821   0.930327432
S        0.531965795   0.150214602   0.166660506
S        0.531965795   0.349785398   0.166660506
S        0.534880892   0.549514383   0.166880688
S        0.536620648   0.750000000   0.166931357
S        0.534880892   0.950485617   0.166880688
S        0.825268502   0.050001095   0.065583860
S        0.824846725   0.250000000   0.065478031
S        0.825268502   0.449998905   0.065583860
S        0.825930557   0.649958029   0.065888128
S        0.825930557   0.850041971   0.065888128
S        0.327513824   0.149929011   0.031841577
S        0.327513824   0.350070989   0.031841577
S        0.327888223   0.550191583   0.032174961
S        0.328100325   0.750000000   0.032469295
S        0.327888223   0.949808417   0.032174961
S        0.033691755   0.049943148   0.930253627
S        0.033637168   0.250000000   0.930226735
S        0.033691755   0.450056852   0.930253627
S        0.033765183   0.650067771   0.930344558
S        0.033765183   0.849932229   0.930344558
S        0.116313130   0.150273998   0.166109627
S        0.116313130   0.349726002   0.166109627
S        0.119179469   0.549437647   0.166908898
S        0.121100512   0.750000000   0.167327279
S        0.119179469   0.950562353   0.166908898
C        0.375296143   0.208366103   0.298080378
C        0.375240219   0.458307784   0.297283597
C        0.374942547   0.708230193   0.297222499
C        0.375006645   0.958296689   0.298025492
C        0.875287445   0.208368325   0.297807399
C        0.875229129   0.458316170   0.296962195
C        0.874897091   0.708256614   0.296816738
C        0.874954573   0.958314455   0.297678199
C        0.375240219   0.041692216   0.297283597
C        0.375296143   0.291633897   0.298080378
C        0.375006645   0.541703311   0.298025492
C        0.374942547   0.791769807   0.297222499
C        0.875229129   0.041683830   0.296962195
C        0.875287445   0.291631675   0.297807399
C        0.874954573   0.541685545   0.297678199
C        0.874897091   0.791743386   0.296816738
C        0.125337624   0.083208154   0.297079121
C        0.125505756   0.333300389   0.297675795
C        0.125244103   0.583378206   0.297921560
C        0.125085928   0.833301950   0.297317879
C        0.625382238   0.083212988   0.297061235
C        0.625565191   0.333302396   0.297651531
C        0.625290307   0.583361864   0.297880753
C        0.625110930   0.833283669   0.297284483
C        0.125505756   0.166699611   0.297675795
C        0.125337624   0.416791846   0.297079121
C        0.125085928   0.666698050   0.297317879
C        0.125244103   0.916621794   0.297921560
C        0.625565191   0.166697604   0.297651531
C        0.625382238   0.416787012   0.297061235
C        0.625110930   0.666716331   0.297284483
C        0.625290307   0.916638136   0.297880753



     Writing output data file TiS3.save
     Check: negative starting charge=   -0.024243
     NEW-OLD atomic charge density approx. for the potential

     Check: negative/imaginary core charge=   -0.000006    0.000000
     Check: negative starting charge=   -0.023952

     negative rho (up, down):  2.975E-02 0.000E+00

     total cpu time spent up to now is    74986.5 secs

     per-process dynamical memory:   362.1 Mb

     Self-consistent Calculation

     iteration #  1     ecut=    39.00 Ry     beta=0.30
     Davidson diagonalization with overlap
