Siesta Version:                                        siesta-3.1
Architecture  : x86_64-unknown-linux-gnu--unknown
Compiler flags: mpif90 -g -O2
PARALLEL version

* Running on    4 nodes in parallel
>> Start of run:  21-NOV-2019  13:35:20

                           ***********************       
                           *  WELCOME TO SIESTA  *       
                           ***********************       

reinit: Reading from standard input
************************** Dump of input data file ****************************
SystemName TiS3
SystemLabel TiS3
NumberOfAtoms 145
SpinPolarized .true.
NumberOfSpecies 4
%block ChemicalSpeciesLabel
1  22 Ti
2  16 S
3  6 C
4  12 Mg
%endblock ChemicalSpeciesLabel
XC.functional		GGA
XC.authors		PBE
PAO.BasisSize		DZP
PAO.EnergyShift		65 meV
LatticeConstant 1.0 Ang
%block LatticeParameters
9.99358 17.21068 25.00000 90.00000 90.00000 90.00002
%endblock LatticeParameters
AtomicCoordinatesFormat  Fractional
%block AtomicCoordinatesAndAtomicSpecies
0.163663	0.050038	0.094820	1
0.663663	0.050038	0.094820	1
0.163594	0.249991	0.094288	1
0.663594	0.249991	0.094288	1
0.163639	0.449965	0.094369	1
0.663639	0.449965	0.094369	1
0.163751	0.649975	0.094476	1
0.663751	0.649975	0.094476	1
0.163757	0.850033	0.094458	1
0.663757	0.850033	0.094458	1
0.413487	0.149953	0.985900	1
0.913487	0.149953	0.985900	1
0.413487	0.350002	0.985841	1
0.913487	0.350002	0.985841	1
0.413581	0.550011	0.985928	1
0.913581	0.550011	0.985928	1
0.413606	0.750004	0.985969	1
0.913606	0.750004	0.985969	1
0.413590	0.950019	0.985977	1
0.913590	0.950019	0.985977	1
0.309200	0.049948	0.924832	2
0.809200	0.049948	0.924832	2
0.309101	0.249980	0.924814	2
0.809101	0.249980	0.924814	2
0.309191	0.450056	0.924804	2
0.809191	0.450056	0.924804	2
0.309242	0.650033	0.924876	2
0.809242	0.650033	0.924876	2
0.309238	0.849994	0.924901	2
0.809238	0.849994	0.924901	2
0.268131	0.150193	0.155651	2
0.768131	0.150193	0.155651	2
0.268102	0.349954	0.155505	2
0.768102	0.349954	0.155505	2
0.268243	0.549888	0.155577	2
0.768243	0.549888	0.155577	2
0.268717	0.750000	0.155444	2
0.768717	0.750000	0.155444	2
0.268277	0.949997	0.155722	2
0.768277	0.949997	0.155722	2
0.413550	0.050028	0.057944	2
0.913550	0.050028	0.057944	2
0.413482	0.249997	0.057766	2
0.913482	0.249997	0.057766	2
0.413530	0.449968	0.057811	2
0.913530	0.449968	0.057811	2
0.413666	0.649979	0.057895	2
0.913666	0.649979	0.057895	2
0.413670	0.850024	0.057901	2
0.913670	0.850024	0.057901	2
0.163536	0.149839	0.022660	2
0.663536	0.149839	0.022660	2
0.163511	0.350017	0.022523	2
0.663511	0.350017	0.022523	2
0.163632	0.550030	0.022628	2
0.663632	0.550030	0.022628	2
0.163640	0.750000	0.022689	2
0.663640	0.750000	0.022689	2
0.163646	0.950106	0.022753	2
0.663646	0.950106	0.022753	2
0.018186	0.049938	0.924919	2
0.518186	0.049938	0.924919	2
0.018080	0.249965	0.924825	2
0.518080	0.249965	0.924825	2
0.018170	0.450049	0.924876	2
0.518170	0.450049	0.924876	2
0.018230	0.650037	0.924945	2
0.518230	0.650037	0.924945	2
0.018226	0.849983	0.924966	2
0.518226	0.849983	0.924966	2
0.058956	0.150189	0.155585	2
0.558956	0.150189	0.155585	2
0.058987	0.349927	0.155453	2
0.558987	0.349927	0.155453	2
0.059127	0.549875	0.155568	2
0.559127	0.549875	0.155568	2
0.059611	0.749998	0.155813	2
0.559611	0.749998	0.155813	2
0.059104	0.949995	0.155695	2
0.559104	0.949995	0.155695	2
0.185211	0.208316	0.284927	3
0.685211	0.208316	0.284927	3
0.185215	0.458326	0.284927	3
0.685215	0.458326	0.284927	3
0.185211	0.708317	0.284927	3
0.685211	0.708317	0.284927	3
0.185211	0.958312	0.284927	3
0.685211	0.958312	0.284927	3
0.435211	0.208318	0.284927	3
0.935211	0.208318	0.284927	3
0.435213	0.458325	0.284927	3
0.935213	0.458325	0.284927	3
0.435210	0.708318	0.284927	3
0.935210	0.708318	0.284927	3
0.435210	0.958315	0.284927	3
0.935210	0.958315	0.284927	3
0.185214	0.041673	0.284927	3
0.685214	0.041673	0.284927	3
0.185212	0.291683	0.284927	3
0.685212	0.291683	0.284927	3
0.185212	0.541687	0.284927	3
0.685212	0.541687	0.284927	3
0.185211	0.791681	0.284927	3
0.685211	0.791681	0.284927	3
0.435212	0.041674	0.284927	3
0.935212	0.041674	0.284927	3
0.435211	0.291682	0.284927	3
0.935211	0.291682	0.284927	3
0.435212	0.541685	0.284927	3
0.935212	0.541685	0.284927	3
0.435210	0.791680	0.284927	3
0.935210	0.791680	0.284927	3
0.060212	0.083313	0.284927	3
0.560212	0.083313	0.284927	3
0.060210	0.333321	0.284927	3
0.560210	0.333321	0.284927	3
0.060213	0.583319	0.284927	3
0.560213	0.583319	0.284927	3
0.060212	0.833315	0.284927	3
0.560212	0.833315	0.284927	3
0.310214	0.083313	0.284927	3
0.810214	0.083313	0.284927	3
0.310216	0.333320	0.284927	3
0.810216	0.333320	0.284927	3
0.310215	0.583318	0.284927	3
0.810215	0.583318	0.284927	3
0.310212	0.833316	0.284927	3
0.810212	0.833316	0.284927	3
0.060210	0.166679	0.284927	3
0.560210	0.166679	0.284927	3
0.060213	0.416687	0.284927	3
0.560213	0.416687	0.284927	3
0.060213	0.666684	0.284927	3
0.560213	0.666684	0.284927	3
0.060212	0.916680	0.284927	3
0.560212	0.916680	0.284927	3
0.310216	0.166679	0.284927	3
0.810216	0.166679	0.284927	3
0.310216	0.416686	0.284927	3
0.810216	0.416686	0.284927	3
0.310212	0.666683	0.284927	3
0.810212	0.666683	0.284927	3
0.310214	0.916681	0.284927	3
0.810214	0.916681	0.284927	3
0.663545	0.15019	0.251579	4
%endblock AtomicCoordinatesAndAtomicSpecies
DM.MixingWeight		0.05
DM.NumberPulay		8
DM.Tolerance		1.d-4
MaxSCFIterations		300
MD.TypeOfRun		CG
MD.VariableCell		.true.
MD.MaxForceTol		0.01 eV/Ang
MD.NumCGsteps		1000
#MD.MaxCGDispl		0.15 Ang
%block GeometryConstraints
 stress 3 4 5
 position  1 0.0  0.0  1.0
%endblock GeometryConstraints
MeshCutoff		300.0 Ry
WriteCoorXmol		yes
%block kgrid_Monkhorst_Pack
   3   0   0  0.0
   0   2   0  0.0
   0   0   1  0.0
%endblock Kgrid_Monkhorst_Pack
UseSaveData           .true.
SaveRho                 .true.       # Write valence pseudocharge at the mesh
************************** End of input data file *****************************

reinit: -----------------------------------------------------------------------
reinit: System Name: TiS3
reinit: -----------------------------------------------------------------------
reinit: System Label: TiS3                                                        
reinit: -----------------------------------------------------------------------

initatom: Reading input for the pseudopotentials and atomic orbitals ----------
 Species number:            1  Label: Ti Atomic number:          22
 Species number:            2  Label: S Atomic number:          16
 Species number:            3  Label: C Atomic number:           6
 Species number:            4  Label: Mg Atomic number:          12
Ground state valence configuration:   4s02  3d02
Reading pseudopotential information in formatted form from Ti.psf

Valence configuration for pseudopotential generation:
4s( 2.00) rc: 2.71
4p( 0.00) rc: 2.71
3d( 2.00) rc: 2.45
4f( 0.00) rc: 2.45
Ground state valence configuration:   3s02  3p04
Reading pseudopotential information in formatted form from S.psf

Valence configuration for pseudopotential generation:
3s( 2.00) rc: 1.61
3p( 4.00) rc: 1.76
3d( 0.00) rc: 1.92
4f( 0.00) rc: 1.92
Ground state valence configuration:   2s02  2p02
Reading pseudopotential information in formatted form from C.psf

Valence configuration for pseudopotential generation:
2s( 2.00) rc: 1.54
2p( 2.00) rc: 1.54
3d( 0.00) rc: 1.54
4f( 0.00) rc: 1.54
Ground state valence configuration:   3s02
Reading pseudopotential information in formatted form from Mg.psf

Valence configuration for pseudopotential generation:
3s( 2.00) rc: 2.18
3p( 0.00) rc: 2.56
3d( 0.00) rc: 2.56
4f( 0.00) rc: 2.56
For Ti, standard SIESTA heuristics set lmxkb to 3
 (one more than the basis l, including polarization orbitals).
Use PS.lmax or PS.KBprojectors blocks to override.
For S, standard SIESTA heuristics set lmxkb to 3
 (one more than the basis l, including polarization orbitals).
Use PS.lmax or PS.KBprojectors blocks to override.
For C, standard SIESTA heuristics set lmxkb to 3
 (one more than the basis l, including polarization orbitals).
Use PS.lmax or PS.KBprojectors blocks to override.
For Mg, standard SIESTA heuristics set lmxkb to 2
 (one more than the basis l, including polarization orbitals).
Use PS.lmax or PS.KBprojectors blocks to override.

<basis_specs>
===============================================================================
Ti                   Z=  22    Mass=  47.880        Charge= 0.17977+309
Lmxo=2 Lmxkb= 3    BasisType=split      Semic=F
L=0  Nsemic=0  Cnfigmx=4
          n=1  nzeta=2  polorb=1
            splnorm:   0.15000    
               vcte:    0.0000    
               rinn:    0.0000    
                rcs:    0.0000      0.0000    
            lambdas:    1.0000      1.0000    
L=1  Nsemic=0  Cnfigmx=4
L=2  Nsemic=0  Cnfigmx=3
          n=1  nzeta=2  polorb=0
            splnorm:   0.15000    
               vcte:    0.0000    
               rinn:    0.0000    
                rcs:    0.0000      0.0000    
            lambdas:    1.0000      1.0000    
-------------------------------------------------------------------------------
L=0  Nkbl=1  erefs: 0.17977+309
L=1  Nkbl=1  erefs: 0.17977+309
L=2  Nkbl=1  erefs: 0.17977+309
L=3  Nkbl=1  erefs: 0.17977+309
===============================================================================
</basis_specs>

atom: Called for Ti                    (Z =  22)

read_vps: Pseudopotential generation method:
read_vps: ATM3      Troullier-Martins                       
Total valence charge:    4.00000

read_vps: Pseudopotential includes a core correction:
read_vps: Pseudo-core for xc-correction

xc_check: Exchange-correlation functional:
xc_check: GGA Perdew, Burke & Ernzerhof 1996
V l=0 = -2*Zval/r beyond r=  3.2266
V l=1 = -2*Zval/r beyond r=  3.2266
V l=2 = -2*Zval/r beyond r=  3.2266
V l=3 = -2*Zval/r beyond r=  3.2266
All V_l potentials equal beyond r=  2.6749
This should be close to max(r_c) in ps generation
All pots = -2*Zval/r beyond r=  3.2266

VLOCAL1: 99.0% of the norm of Vloc inside      6.067 Ry
VLOCAL1: 99.9% of the norm of Vloc inside     13.826 Ry
atom: Maximum radius for 4*pi*r*r*local-pseudopot. charge    3.18650
atom: Maximum radius for r*vlocal+2*Zval:    2.77713
GHOST: No ghost state for L =  0
GHOST: No ghost state for L =  1
GHOST: No ghost state for L =  2
GHOST: No ghost state for L =  3

KBgen: Kleinman-Bylander projectors: 
   l= 0   rc=  3.656209   el= -0.325100   Ekb=  2.704161   kbcos=  0.283955
   l= 1   rc=  3.748769   el= -0.108822   Ekb=  1.406241   kbcos=  0.273406
   l= 2   rc=  3.267166   el= -0.324546   Ekb= -7.701284   kbcos= -0.636873
   l= 3   rc=  3.990551   el=  0.003060   Ekb= -1.295170   kbcos= -0.013833

KBgen: Total number of  Kleinman-Bylander projectors:   16
atom: -------------------------------------------------------------------------

atom: SANKEY-TYPE ORBITALS:
atom: Selected multiple-zeta basis: split     

SPLIT: Orbitals with angular momentum L= 0

SPLIT: Basis orbitals for state 4s

SPLIT: PAO cut-off radius determined from an
SPLIT: energy shift=  0.004777 Ry

   izeta = 1
                 lambda =    1.000000
                     rc =    8.448122
                 energy =   -0.320243
                kinetic =    0.225933
    potential(screened) =   -0.546176
       potential(ionic) =   -2.398113

   izeta = 2
                 rmatch =    7.181023
              splitnorm =    0.150000
                 energy =   -0.277986
                kinetic =    0.361117
    potential(screened) =   -0.639103
       potential(ionic) =   -2.603312

SPLIT: Orbitals with angular momentum L= 2

SPLIT: Basis orbitals for state 3d

SPLIT: PAO cut-off radius determined from an
SPLIT: energy shift=  0.004777 Ry

   izeta = 1
                 lambda =    1.000000
                     rc =    5.806269
                 energy =   -0.319832
                kinetic =    5.305924
    potential(screened) =   -5.625757
       potential(ionic) =   -8.134583

   izeta = 2
                 rmatch =    3.107819
              splitnorm =    0.150000
                 energy =   -0.130887
                kinetic =    7.291131
    potential(screened) =   -7.422018
       potential(ionic) =  -10.057457

POLgen: Perturbative polarization orbital with L=  1

POLgen: Polarization orbital for state 4s

   izeta = 1
                     rc =    8.448122
                 energy =   -0.098258
                kinetic =    0.420436
    potential(screened) =   -0.518694
       potential(ionic) =   -2.271734
atom: Total number of Sankey-type orbitals: 15

atm_pop: Valence configuration (for local Pseudopot. screening):
 4s( 2.00)                                                            
 4p( 0.00)                                                            
 3d( 2.00)                                                            
Vna: chval, zval:    4.00000   4.00000

Vna:  Cut-off radius for the neutral-atom potential:   8.448122
comcore: Pseudo-core radius Rcore=  4.578782

atom: _________________________________________________________________________

<basis_specs>
===============================================================================
S                    Z=  16    Mass=  32.070        Charge= 0.17977+309
Lmxo=1 Lmxkb= 3    BasisType=split      Semic=F
L=0  Nsemic=0  Cnfigmx=3
          n=1  nzeta=2  polorb=0
            splnorm:   0.15000    
               vcte:    0.0000    
               rinn:    0.0000    
                rcs:    0.0000      0.0000    
            lambdas:    1.0000      1.0000    
L=1  Nsemic=0  Cnfigmx=3
          n=1  nzeta=2  polorb=1
            splnorm:   0.15000    
               vcte:    0.0000    
               rinn:    0.0000    
                rcs:    0.0000      0.0000    
            lambdas:    1.0000      1.0000    
-------------------------------------------------------------------------------
L=0  Nkbl=1  erefs: 0.17977+309
L=1  Nkbl=1  erefs: 0.17977+309
L=2  Nkbl=1  erefs: 0.17977+309
L=3  Nkbl=1  erefs: 0.17977+309
===============================================================================
</basis_specs>

atom: Called for S                     (Z =  16)

read_vps: Pseudopotential generation method:
read_vps: ATM3      Troullier-Martins                       
Total valence charge:    6.00000

read_vps: Pseudopotential includes a core correction:
read_vps: Pseudo-core for xc-correction

xc_check: Exchange-correlation functional:
xc_check: GGA Perdew, Burke & Ernzerhof 1996
V l=0 = -2*Zval/r beyond r=  1.7157
V l=1 = -2*Zval/r beyond r=  1.7813
V l=2 = -2*Zval/r beyond r=  1.8962
V l=3 = -2*Zval/r beyond r=  1.8962
All V_l potentials equal beyond r=  1.8962
This should be close to max(r_c) in ps generation
All pots = -2*Zval/r beyond r=  1.8962

VLOCAL1: 99.0% of the norm of Vloc inside     12.073 Ry
VLOCAL1: 99.9% of the norm of Vloc inside     27.515 Ry
atom: Maximum radius for 4*pi*r*r*local-pseudopot. charge    2.28723
atom: Maximum radius for r*vlocal+2*Zval:    1.99338
GHOST: No ghost state for L =  0
GHOST: No ghost state for L =  1
GHOST: No ghost state for L =  2
GHOST: No ghost state for L =  3

KBgen: Kleinman-Bylander projectors: 
   l= 0   rc=  2.095595   el= -1.260012   Ekb=  7.575815   kbcos=  0.308447
   l= 1   rc=  2.148649   el= -0.516050   Ekb=  2.724996   kbcos=  0.294943
   l= 2   rc=  2.175677   el=  0.001998   Ekb= -2.719245   kbcos= -0.053867
   l= 3   rc=  2.345140   el=  0.003105   Ekb= -0.697074   kbcos= -0.004230

KBgen: Total number of  Kleinman-Bylander projectors:   16
atom: -------------------------------------------------------------------------

atom: SANKEY-TYPE ORBITALS:
atom: Selected multiple-zeta basis: split     

SPLIT: Orbitals with angular momentum L= 0

SPLIT: Basis orbitals for state 3s

SPLIT: PAO cut-off radius determined from an
SPLIT: energy shift=  0.004777 Ry

   izeta = 1
                 lambda =    1.000000
                     rc =    4.842249
                 energy =   -1.255602
                kinetic =    0.842930
    potential(screened) =   -2.098533
       potential(ionic) =   -7.019684

   izeta = 2
                 rmatch =    3.542623
              splitnorm =    0.150000
                 energy =   -1.124633
                kinetic =    1.297137
    potential(screened) =   -2.421770
       potential(ionic) =   -7.574141

SPLIT: Orbitals with angular momentum L= 1

SPLIT: Basis orbitals for state 3p

SPLIT: PAO cut-off radius determined from an
SPLIT: energy shift=  0.004777 Ry

   izeta = 1
                 lambda =    1.000000
                     rc =    6.064098
                 energy =   -0.511517
                kinetic =    1.429029
    potential(screened) =   -1.940546
       potential(ionic) =   -6.510685

   izeta = 2
                 rmatch =    3.964470
              splitnorm =    0.150000
                 energy =   -0.369917
                kinetic =    2.112725
    potential(screened) =   -2.482643
       potential(ionic) =   -7.463487

POLgen: Perturbative polarization orbital with L=  2

POLgen: Polarization orbital for state 3p

   izeta = 1
                     rc =    6.064098
                 energy =    0.629859
                kinetic =    1.964668
    potential(screened) =   -1.334809
       potential(ionic) =   -5.430423
atom: Total number of Sankey-type orbitals: 13

atm_pop: Valence configuration (for local Pseudopot. screening):
 3s( 2.00)                                                            
 3p( 4.00)                                                            
Vna: chval, zval:    6.00000   6.00000

Vna:  Cut-off radius for the neutral-atom potential:   6.064098
comcore: Pseudo-core radius Rcore=  2.496399

atom: _________________________________________________________________________

<basis_specs>
===============================================================================
C                    Z=   6    Mass=  12.010        Charge= 0.17977+309
Lmxo=1 Lmxkb= 3    BasisType=split      Semic=F
L=0  Nsemic=0  Cnfigmx=2
          n=1  nzeta=2  polorb=0
            splnorm:   0.15000    
               vcte:    0.0000    
               rinn:    0.0000    
                rcs:    0.0000      0.0000    
            lambdas:    1.0000      1.0000    
L=1  Nsemic=0  Cnfigmx=2
          n=1  nzeta=2  polorb=1
            splnorm:   0.15000    
               vcte:    0.0000    
               rinn:    0.0000    
                rcs:    0.0000      0.0000    
            lambdas:    1.0000      1.0000    
-------------------------------------------------------------------------------
L=0  Nkbl=1  erefs: 0.17977+309
L=1  Nkbl=1  erefs: 0.17977+309
L=2  Nkbl=1  erefs: 0.17977+309
L=3  Nkbl=1  erefs: 0.17977+309
===============================================================================
</basis_specs>

atom: Called for C                     (Z =   6)

read_vps: Pseudopotential generation method:
read_vps: ATM3      Troullier-Martins                       
Total valence charge:    4.00000

read_vps: Pseudopotential includes a core correction:
read_vps: Pseudo-core for xc-correction

xc_check: Exchange-correlation functional:
xc_check: GGA Perdew, Burke & Ernzerhof 1996
V l=0 = -2*Zval/r beyond r=  1.5227
V l=1 = -2*Zval/r beyond r=  1.5227
V l=2 = -2*Zval/r beyond r=  1.5227
V l=3 = -2*Zval/r beyond r=  1.5038
All V_l potentials equal beyond r=  1.5227
This should be close to max(r_c) in ps generation
All pots = -2*Zval/r beyond r=  1.5227

VLOCAL1: 99.0% of the norm of Vloc inside     18.722 Ry
VLOCAL1: 99.9% of the norm of Vloc inside     42.668 Ry
atom: Maximum radius for 4*pi*r*r*local-pseudopot. charge    1.83678
atom: Maximum radius for r*vlocal+2*Zval:    1.58088
GHOST: No ghost state for L =  0
GHOST: No ghost state for L =  1
GHOST: No ghost state for L =  2
GHOST: No ghost state for L =  3

KBgen: Kleinman-Bylander projectors: 
   l= 0   rc=  1.704034   el= -1.009801   Ekb=  5.335044   kbcos=  0.316824
   l= 1   rc=  1.704034   el= -0.388707   Ekb= -3.785862   kbcos= -0.366464
   l= 2   rc=  1.791422   el=  0.001971   Ekb= -0.970471   kbcos= -0.009212
   l= 3   rc=  1.859892   el=  0.003065   Ekb= -0.399525   kbcos= -0.001223

KBgen: Total number of  Kleinman-Bylander projectors:   16
atom: -------------------------------------------------------------------------

atom: SANKEY-TYPE ORBITALS:
atom: Selected multiple-zeta basis: split     

SPLIT: Orbitals with angular momentum L= 0

SPLIT: Basis orbitals for state 2s

SPLIT: PAO cut-off radius determined from an
SPLIT: energy shift=  0.004777 Ry

   izeta = 1
                 lambda =    1.000000
                     rc =    4.870301
                 energy =   -1.004978
                kinetic =    0.843912
    potential(screened) =   -1.848890
       potential(ionic) =   -5.399930

   izeta = 2
                 rmatch =    3.475094
              splitnorm =    0.150000
                 energy =   -0.867524
                kinetic =    1.299872
    potential(screened) =   -2.167396
       potential(ionic) =   -5.961732

SPLIT: Orbitals with angular momentum L= 1

SPLIT: Basis orbitals for state 2p

SPLIT: PAO cut-off radius determined from an
SPLIT: energy shift=  0.004777 Ry

   izeta = 1
                 lambda =    1.000000
                     rc =    6.099293
                 energy =   -0.384291
                kinetic =    2.361393
    potential(screened) =   -2.745684
       potential(ionic) =   -6.151019

   izeta = 2
                 rmatch =    3.699245
              splitnorm =    0.150000
                 energy =   -0.263576
                kinetic =    3.460758
    potential(screened) =   -3.724335
       potential(ionic) =   -7.494953

POLgen: Perturbative polarization orbital with L=  2

POLgen: Polarization orbital for state 2p

   izeta = 1
                     rc =    6.099293
                 energy =    1.042694
                kinetic =    2.181445
    potential(screened) =   -1.138752
       potential(ionic) =   -3.900921
atom: Total number of Sankey-type orbitals: 13

atm_pop: Valence configuration (for local Pseudopot. screening):
 2s( 2.00)                                                            
 2p( 2.00)                                                            
Vna: chval, zval:    4.00000   4.00000

Vna:  Cut-off radius for the neutral-atom potential:   6.099293
comcore: Pseudo-core radius Rcore=  1.791422

atom: _________________________________________________________________________

<basis_specs>
===============================================================================
Mg                   Z=  12    Mass=  24.310        Charge= 0.17977+309
Lmxo=0 Lmxkb= 2    BasisType=split      Semic=F
L=0  Nsemic=0  Cnfigmx=3
          n=1  nzeta=2  polorb=1
            splnorm:   0.15000    
               vcte:    0.0000    
               rinn:    0.0000    
                rcs:    0.0000      0.0000    
            lambdas:    1.0000      1.0000    
-------------------------------------------------------------------------------
L=0  Nkbl=1  erefs: 0.17977+309
L=1  Nkbl=1  erefs: 0.17977+309
L=2  Nkbl=1  erefs: 0.17977+309
===============================================================================
</basis_specs>

atom: Called for Mg                    (Z =  12)

read_vps: Pseudopotential generation method:
read_vps: ATM3      Troullier-Martins                       
Total valence charge:    2.00000

read_vps: Pseudopotential includes a core correction:
read_vps: Pseudo-core for xc-correction

xc_check: Exchange-correlation functional:
xc_check: GGA Perdew, Burke & Ernzerhof 1996
V l=0 = -2*Zval/r beyond r=  2.7941
V l=1 = -2*Zval/r beyond r=  2.7941
V l=2 = -2*Zval/r beyond r=  2.7941
All V_l potentials equal beyond r=  2.5282
This should be close to max(r_c) in ps generation
All pots = -2*Zval/r beyond r=  2.7941

VLOCAL1: 99.0% of the norm of Vloc inside      6.791 Ry
VLOCAL1: 99.9% of the norm of Vloc inside     15.477 Ry
atom: Maximum radius for 4*pi*r*r*local-pseudopot. charge    2.97435
atom: Maximum radius for r*vlocal+2*Zval:    2.56001
GHOST: No ghost state for L =  0
GHOST: No ghost state for L =  1
GHOST: No ghost state for L =  2

KBgen: Kleinman-Bylander projectors: 
   l= 0   rc=  3.088009   el= -0.345349   Ekb=  3.255086   kbcos=  0.241251
   l= 1   rc=  3.206016   el= -0.098276   Ekb=  1.114388   kbcos=  0.231681
   l= 2   rc=  3.328532   el=  0.002057   Ekb= -0.689313   kbcos= -0.054276

KBgen: Total number of  Kleinman-Bylander projectors:    9
atom: -------------------------------------------------------------------------

atom: SANKEY-TYPE ORBITALS:
atom: Selected multiple-zeta basis: split     

SPLIT: Orbitals with angular momentum L= 0

SPLIT: Basis orbitals for state 3s

SPLIT: PAO cut-off radius determined from an
SPLIT: energy shift=  0.004777 Ry

   izeta = 1
                 lambda =    1.000000
                     rc =    8.085463
                 energy =   -0.341159
                kinetic =    0.253722
    potential(screened) =   -0.594882
       potential(ionic) =   -1.297409

   izeta = 2
                 rmatch =    6.619780
              splitnorm =    0.150000
                 energy =   -0.297738
                kinetic =    0.397438
    potential(screened) =   -0.695176
       potential(ionic) =   -1.426576

POLgen: Perturbative polarization orbital with L=  1

POLgen: Polarization orbital for state 3s

   izeta = 1
                     rc =    8.085463
                 energy =   -0.055232
                kinetic =    0.490910
    potential(screened) =   -0.546142
       potential(ionic) =   -1.238823
atom: Total number of Sankey-type orbitals:  5

atm_pop: Valence configuration (for local Pseudopot. screening):
 3s( 2.00)                                                            
Vna: chval, zval:    2.00000   2.00000

Vna:  Cut-off radius for the neutral-atom potential:   8.085463
comcore: Pseudo-core radius Rcore=  3.915882

atom: _________________________________________________________________________

prinput: Basis input ----------------------------------------------------------

PAO.BasisType split     

%block ChemicalSpeciesLabel
    1   22 Ti                      # Species index, atomic number, species label
    2   16 S                       # Species index, atomic number, species label
    3    6 C                       # Species index, atomic number, species label
    4   12 Mg                      # Species index, atomic number, species label
%endblock ChemicalSpeciesLabel

%block PAO.Basis                 # Define Basis set
Ti                    2                    # Species label, number of l-shells
 n=4   0   2 P   1                   # n, l, Nzeta, Polarization, NzetaPol
   8.448      7.181   
   1.000      1.000   
 n=3   2   2                         # n, l, Nzeta 
   5.806      3.108   
   1.000      1.000   
S                     2                    # Species label, number of l-shells
 n=3   0   2                         # n, l, Nzeta 
   4.842      3.543   
   1.000      1.000   
 n=3   1   2 P   1                   # n, l, Nzeta, Polarization, NzetaPol
   6.064      3.964   
   1.000      1.000   
C                     2                    # Species label, number of l-shells
 n=2   0   2                         # n, l, Nzeta 
   4.870      3.475   
   1.000      1.000   
 n=2   1   2 P   1                   # n, l, Nzeta, Polarization, NzetaPol
   6.099      3.699   
   1.000      1.000   
Mg                    1                    # Species label, number of l-shells
 n=3   0   2 P   1                   # n, l, Nzeta, Polarization, NzetaPol
   8.085      6.620   
   1.000      1.000   
%endblock PAO.Basis

prinput: ----------------------------------------------------------------------

coor:   Atomic-coordinates input format  =     Fractional

siesta: WARNING: XV file not found

siesta: Atomic coordinates (Bohr) and species
siesta:      3.09080   1.62741   4.47960  1        1
siesta:     12.53337   1.62741   4.47960  1        2
siesta:      3.08949   8.13058   4.45446  1        3
siesta:     12.53206   8.13058   4.45446  1        4
siesta:      3.09034  14.63443   4.45829  1        5
siesta:     12.53291  14.63443   4.45829  1        6
siesta:      3.09245  21.13945   4.46335  1        7
siesta:     12.53502  21.13945   4.46335  1        8
siesta:      3.09256  27.64604   4.46250  1        9
siesta:     12.53513  27.64604   4.46250  1       10
siesta:      7.80876   4.87699  46.57704  1       11
siesta:     17.25133   4.87699  46.57704  1       12
siesta:      7.80875  11.38328  46.57426  1       13
siesta:     17.25132  11.38328  46.57426  1       14
siesta:      7.81053  17.88827  46.57837  1       15
siesta:     17.25310  17.88827  46.57837  1       16
siesta:      7.81100  24.39274  46.58030  1       17
siesta:     17.25357  24.39274  46.58030  1       18
siesta:      7.81069  30.89793  46.58068  1       19
siesta:     17.25326  30.89793  46.58068  1       20
siesta:      5.83928   1.62448  43.69200  2       21
siesta:     15.28185   1.62448  43.69200  2       22
siesta:      5.83741   8.13022  43.69115  2       23
siesta:     15.27998   8.13022  43.69115  2       24
siesta:      5.83911  14.63739  43.69067  2       25
siesta:     15.28168  14.63739  43.69067  2       26
siesta:      5.84007  21.14134  43.69408  2       27
siesta:     15.28264  21.14134  43.69408  2       28
siesta:      5.83999  27.64477  43.69526  2       29
siesta:     15.28256  27.64477  43.69526  2       30
siesta:      5.06369   4.88480   7.35345  2       31
siesta:     14.50626   4.88480   7.35345  2       32
siesta:      5.06314  11.38172   7.34655  2       33
siesta:     14.50571  11.38172   7.34655  2       34
siesta:      5.06580  17.88427   7.34995  2       35
siesta:     14.50837  17.88427   7.34995  2       36
siesta:      5.07475  24.39261   7.34367  2       37
siesta:     14.51732  24.39261   7.34367  2       38
siesta:      5.06644  30.89721   7.35680  2       39
siesta:     14.50901  30.89721   7.35680  2       40
siesta:      7.80995   1.62708   2.73746  2       41
siesta:     17.25252   1.62708   2.73746  2       42
siesta:      7.80866   8.13077   2.72905  2       43
siesta:     17.25123   8.13077   2.72905  2       44
siesta:      7.80957  14.63453   2.73118  2       45
siesta:     17.25213  14.63453   2.73118  2       46
siesta:      7.81213  21.13958   2.73514  2       47
siesta:     17.25470  21.13958   2.73514  2       48
siesta:      7.81220  27.64574   2.73543  2       49
siesta:     17.25477  27.64574   2.73543  2       50
siesta:      3.08840   4.87329   1.07053  2       51
siesta:     12.53097   4.87329   1.07053  2       52
siesta:      3.08792  11.38377   1.06406  2       53
siesta:     12.53049  11.38377   1.06406  2       54
siesta:      3.09021  17.88889   1.06902  2       55
siesta:     12.53277  17.88889   1.06902  2       56
siesta:      3.09036  24.39261   1.07190  2       57
siesta:     12.53292  24.39261   1.07190  2       58
siesta:      3.09047  30.90076   1.07492  2       59
siesta:     12.53303  30.90076   1.07492  2       60
siesta:      0.34344   1.62416  43.69611  2       61
siesta:      9.78601   1.62416  43.69611  2       62
siesta:      0.34144   8.12973  43.69167  2       63
siesta:      9.78401   8.12973  43.69167  2       64
siesta:      0.34314  14.63716  43.69408  2       65
siesta:      9.78571  14.63716  43.69408  2       66
siesta:      0.34427  21.14147  43.69734  2       67
siesta:      9.78684  21.14147  43.69734  2       68
siesta:      0.34419  27.64441  43.69833  2       69
siesta:      9.78676  27.64441  43.69833  2       70
siesta:      1.11339   4.88467   7.35033  2       71
siesta:     10.55596   4.88467   7.35033  2       72
siesta:      1.11397  11.38085   7.34409  2       73
siesta:     10.55654  11.38085   7.34409  2       74
siesta:      1.11662  17.88385   7.34953  2       75
siesta:     10.55918  17.88385   7.34953  2       76
siesta:      1.12575  24.39255   7.36110  2       77
siesta:     10.56832  24.39255   7.36110  2       78
siesta:      1.11618  30.89715   7.35553  2       79
siesta:     10.55874  30.89715   7.35553  2       80
siesta:      3.49773   6.77516  13.46086  3       81
siesta:     12.94030   6.77516  13.46086  3       82
siesta:      3.49781  14.90636  13.46086  3       83
siesta:     12.94037  14.90636  13.46086  3       84
siesta:      3.49773  23.03694  13.46086  3       85
siesta:     12.94030  23.03694  13.46086  3       86
siesta:      3.49772  31.16765  13.46086  3       87
siesta:     12.94029  31.16765  13.46086  3       88
siesta:      8.21902   6.77523  13.46086  3       89
siesta:     17.66159   6.77523  13.46086  3       90
siesta:      8.21905  14.90633  13.46086  3       91
siesta:     17.66162  14.90633  13.46086  3       92
siesta:      8.21899  23.03697  13.46086  3       93
siesta:     17.66156  23.03697  13.46086  3       94
siesta:      8.21899  31.16774  13.46086  3       95
siesta:     17.66156  31.16774  13.46086  3       96
siesta:      3.49779   1.35535  13.46086  3       97
siesta:     12.94036   1.35535  13.46086  3       98
siesta:      3.49775   9.48655  13.46086  3       99
siesta:     12.94032   9.48655  13.46086  3      100
siesta:      3.49775  17.61755  13.46086  3      101
siesta:     12.94032  17.61755  13.46086  3      102
siesta:      3.49773  25.74822  13.46086  3      103
siesta:     12.94029  25.74822  13.46086  3      104
siesta:      8.21904   1.35538  13.46086  3      105
siesta:     17.66161   1.35538  13.46086  3      106
siesta:      8.21902   9.48652  13.46086  3      107
siesta:     17.66158   9.48652  13.46086  3      108
siesta:      8.21903  17.61748  13.46086  3      109
siesta:     17.66160  17.61748  13.46086  3      110
siesta:      8.21899  25.74819  13.46086  3      111
siesta:     17.66156  25.74819  13.46086  3      112
siesta:      1.13711   2.70963  13.46086  3      113
siesta:     10.57968   2.70963  13.46086  3      114
siesta:      1.13707  10.84076  13.46086  3      115
siesta:     10.57964  10.84076  13.46086  3      116
siesta:      1.13712  18.97157  13.46086  3      117
siesta:     10.57969  18.97157  13.46086  3      118
siesta:      1.13710  27.10231  13.46086  3      119
siesta:     10.57967  27.10231  13.46086  3      120
siesta:      5.85843   2.70963  13.46086  3      121
siesta:     15.30100   2.70963  13.46086  3      122
siesta:      5.85847  10.84073  13.46086  3      123
siesta:     15.30104  10.84073  13.46086  3      124
siesta:      5.85845  18.97153  13.46086  3      125
siesta:     15.30101  18.97153  13.46086  3      126
siesta:      5.85839  27.10234  13.46086  3      127
siesta:     15.30095  27.10234  13.46086  3      128
siesta:      1.13707   5.42098  13.46086  3      129
siesta:     10.57964   5.42098  13.46086  3      130
siesta:      1.13713  13.55211  13.46086  3      131
siesta:     10.57969  13.55211  13.46086  3      132
siesta:      1.13712  21.68289  13.46086  3      133
siesta:     10.57969  21.68289  13.46086  3      134
siesta:      1.13710  29.81363  13.46086  3      135
siesta:     10.57967  29.81363  13.46086  3      136
siesta:      5.85847   5.42098  13.46086  3      137
siesta:     15.30104   5.42098  13.46086  3      138
siesta:      5.85847  13.55208  13.46086  3      139
siesta:     15.30104  13.55208  13.46086  3      140
siesta:      5.85839  21.68285  13.46086  3      141
siesta:     15.30096  21.68285  13.46086  3      142
siesta:      5.85842  29.81366  13.46086  3      143
siesta:     15.30099  29.81366  13.46086  3      144
siesta:     12.53114   4.88470  11.88539  4      145

siesta: System type = bulk      

initatomlists: Number of atoms, orbitals, and projectors:    145  1917  2313

siesta: ******************** Simulation parameters ****************************
siesta:
siesta: The following are some of the parameters of the simulation.
siesta: A complete list of the parameters used, including default values,
siesta: can be found in file out.fdf
siesta:
redata: Non-Collinear-spin run           =     F
redata: SpinPolarized (Up/Down) run      =     T
redata: Number of spin components        =     2
redata: Long output                      =     F
redata: Number of Atomic Species         =        4
redata: Charge density info will appear in .RHO file
redata: Write Mulliken Pop.              =     NO
redata: Mesh Cutoff                      =   300.0000  Ry
redata: Net charge of the system         =     0.0000 |e|
redata: Max. number of SCF Iter          =      300
redata: Performing Pulay mixing using    =     8 iterations
redata: Mix DM in first SCF step ?       =     F
redata: Write Pulay info on disk?        =     F
redata: Discard 1st Pulay DM after  kick =     F
redata: New DM Mixing Weight             =     0.0500
redata: New DM Occupancy tolerance       = 0.000000000001
redata: No kicks to SCF
redata: DM Mixing Weight for Kicks       =     0.5000
redata: DM Tolerance for SCF             =     0.000100
redata: Require Energy convergence for SCF =     F
redata: DM Energy tolerance for SCF      =     0.000100 eV
redata: Require Harris convergence for SCF =     F
redata: DM Harris energy tolerance for SCF =     0.000100 eV
redata: Antiferro initial spin density   =     F
redata: Using Saved Data (generic)   =     T
redata: Use continuation files for DM    =     T
redata: Neglect nonoverlap interactions  =     F
redata: Method of Calculation            =     Diagonalization
redata: Divide and Conquer               =     T
redata: Electronic Temperature           =     0.0019  Ry
redata: Fix the spin of the system       =     F
redata: Dynamics option                  =     CG coord. optimization
redata: Variable cell                    =     T
redata: Use continuation files for CG    =     T
redata: Max atomic displ per move        =     0.2000  Bohr
redata: Maximum number of CG moves       =     1000
redata: Force tolerance                  =     0.0004  Ry/Bohr
redata: Stress tolerance                 =     1.0000  GPa
redata: ***********************************************************************
Total number of electrons:   698.000000
Total ionic charge:   698.000000

* ProcessorY, Blocksize:    2  24

k-point displ. along   2 input, could be:     0.00    0.50
 Kpoints in:            4 . Kpoints trimmed:            4

siesta: k-grid: Number of k-points =     4
siesta: k-grid: Cutoff (effective) =    12.500 Ang
siesta: k-grid: Supercell and displacements
siesta: k-grid:    3   0   0      0.000
siesta: k-grid:    0   2   0      0.000
siesta: k-grid:    0   0   1      0.000
Naive supercell factors:     3    2    2

superc: Internal auxiliary supercell:     3 x     2 x     2  =      12
superc: Number of atoms, orbitals, and projectors:   1740  23004  27756

* Maximum dynamic memory allocated =     4 MB

siesta:                 ==============================
                            Begin CG move =      0
                        ==============================

superc: Internal auxiliary supercell:     3 x     2 x     2  =      12
superc: Number of atoms, orbitals, and projectors:   1740  23004  27756

outcell: Unit cell vectors (Ang):
        9.993580    0.000000    0.000000
       -0.000006   17.210680    0.000000
        0.000000    0.000000   25.000000

outcell: Cell vector modules (Ang)   :    9.993580   17.210680   25.000000
outcell: Cell angles (23,13,12) (deg):     90.0000     90.0000     90.0000
outcell: Cell volume (Ang**3)        :   4299.9077
New_DM. Step:     1
Initializing Density Matrix...

InitMesh: MESH =   108 x   180 x   270 =     5248800
InitMesh: Mesh cutoff (required, used) =   300.000   302.309 Ry

* Maximum dynamic memory allocated =  1445 MB

stepf: Fermi-Dirac step function

siesta: Program's energy decomposition (eV):
siesta: Ebs     =     -9178.589552
siesta: Eions   =     47015.810783
siesta: Ena     =     10598.096517
siesta: Ekin    =     14642.780825
siesta: Enl     =       783.670909
siesta: DEna    =        -0.000013
siesta: DUscf   =         0.000000
siesta: DUext   =         0.000000
siesta: Exc     =    -11205.779456
siesta: eta*DQ  =         0.000000
siesta: Emadel  =         0.000000
siesta: Emeta   =         0.000000
siesta: Emolmec =         0.000000
siesta: Ekinion =         0.000000
siesta: Eharris =    -31743.749842
siesta: Etot    =    -32197.042001
siesta: FreeEng =    -32197.042001

siesta: iscf   Eharris(eV)      E_KS(eV)   FreeEng(eV)   dDmax  Ef(eV)
siesta:    1   -31743.7498   -32197.0420   -32197.0420  0.9149 -5.6230
timer: Routine,Calls,Time,% = IterSCF        1    1140.431  98.93
elaps: Routine,Calls,Wall,% = IterSCF        1     285.697  98.92
siesta:    2   -36729.7419   -31710.0667   -31710.1859  2.4768 -8.8233
siesta:    3   -32006.2328   -32012.3065   -32012.4128  0.6786 -4.4205
siesta:    4   -31856.1271   -31918.8334   -31919.0057  0.4997 -4.9753
siesta:    5   -31902.5745   -31786.8288   -31786.9153  0.3196 -4.8689
siesta:    6   -31896.0788   -31757.2318   -31757.3102  0.2374 -4.9375
siesta:    7   -31893.6219   -31750.4331   -31750.5168  0.2036 -4.9673
siesta:    8   -31892.0605   -31759.1975   -31759.2697  0.1826 -4.9636
siesta:    9   -31891.8420   -31768.7770   -31768.8380  0.1641 -4.9815
siesta:   10   -31892.2335   -31790.9380   -31790.9890  0.1283 -4.9558
siesta:   11   -31892.8741   -31821.7936   -31821.8244  0.0967 -4.9167
siesta:   12   -31893.2590   -31830.6881   -31830.7089  0.0800 -4.9304
siesta:   13   -31894.6381   -31859.7300   -31859.7501  0.0651 -5.0163
siesta:   14   -31894.3656   -31871.8729   -31871.8952  0.0447 -4.9849
siesta:   15   -31894.2786   -31876.0082   -31876.0294  0.0408 -4.9446
siesta:   16   -31894.2071   -31879.1552   -31879.1751  0.0296 -4.8331
siesta:   17   -31894.2242   -31881.1366   -31881.1601  0.0231 -4.7674
siesta:   18   -31894.2437   -31883.8952   -31883.9185  0.0207 -4.7677
siesta:   19   -31894.2262   -31885.3327   -31885.3555  0.0177 -4.7939
siesta:   20   -31894.2276   -31887.9306   -31887.9547  0.0164 -4.8145
siesta:   21   -31894.2403   -31890.7773   -31890.8021  0.0150 -4.8114
siesta:   22   -31894.2520   -31893.4284   -31893.4532  0.0130 -4.7968
siesta:   23   -31894.2546   -31893.5877   -31893.6122  0.0134 -4.7949
siesta:   24   -31894.2678   -31894.1303   -31894.1548  0.0114 -4.7768
siesta:   25   -31894.2763   -31894.2563   -31894.2800  0.0110 -4.7732
siesta:   26   -31894.2815   -31894.2846   -31894.3079  0.0122 -4.7713
siesta:   27   -31894.2920   -31894.2291   -31894.2520  0.0115 -4.7672
siesta:   28   -31894.3089   -31894.3155   -31894.3377  0.0122 -4.7673
siesta:   29   -31894.3152   -31894.4461   -31894.4668  0.0099 -4.7680
siesta:   30   -31894.3178   -31893.9698   -31893.9897  0.0083 -4.7682
siesta:   31   -31894.3206   -31893.6611   -31893.6806  0.0073 -4.7667
siesta:   32   -31894.3242   -31893.8962   -31893.9153  0.0071 -4.7613
siesta:   33   -31894.3273   -31894.1464   -31894.1645  0.0045 -4.7597
siesta:   34   -31894.3270   -31894.1994   -31894.2172  0.0053 -4.7616
siesta:   35   -31894.3282   -31894.1798   -31894.1978  0.0040 -4.7636
siesta:   36   -31894.3289   -31894.1492   -31894.1671  0.0035 -4.7641
siesta:   37   -31894.3312   -31894.1335   -31894.1512  0.0017 -4.7648
siesta:   38   -31894.3318   -31894.0194   -31894.0365  0.0013 -4.7653
siesta:   39   -31894.3320   -31893.9248   -31893.9417  0.0008 -4.7655
siesta:   40   -31894.3320   -31893.9182   -31893.9350  0.0008 -4.7658
siesta:   41   -31894.3321   -31894.0794   -31894.0961  0.0007 -4.7669
siesta:   42   -31894.3322   -31894.1240   -31894.1408  0.0007 -4.7671
siesta:   43   -31894.3324   -31894.2218   -31894.2385  0.0007 -4.7667
siesta:   44   -31894.3325   -31894.3020   -31894.3186  0.0005 -4.7661
siesta:   45   -31894.3326   -31894.3372   -31894.3538  0.0003 -4.7667
siesta:   46   -31894.3326   -31894.3391   -31894.3556  0.0003 -4.7669
siesta:   47   -31894.3326   -31894.3419   -31894.3585  0.0003 -4.7672
siesta:   48   -31894.3326   -31894.3565   -31894.3731  0.0003 -4.7674
siesta:   49   -31894.3327   -31894.3598   -31894.3763  0.0003 -4.7674
siesta:   50   -31894.3327   -31894.3612   -31894.3777  0.0003 -4.7674
siesta:   51   -31894.3326   -31894.3564   -31894.3730  0.0003 -4.7674
siesta:   52   -31894.3326   -31894.3540   -31894.3706  0.0002 -4.7673
siesta:   53   -31894.3326   -31894.3539   -31894.3705  0.0001 -4.7673
siesta:   54   -31894.3326   -31894.3512   -31894.3678  0.0001 -4.7673
siesta:   55   -31894.3326   -31894.3394   -31894.3560  0.0001 -4.7674

siesta: E_KS(eV) =           -31894.3310

siesta: E_KS - E_eggbox =    -31894.3310

siesta: Atomic forces (eV/Ang):
----------------------------------------
   Tot    0.129773    0.006650   -0.004159
----------------------------------------
   Max   47.558235
   Res    3.523315    sqrt( Sum f_i^2 / 3N )
----------------------------------------
   Max   47.558235    constrained

Stress-tensor-Voigt (kbar):      -13.05      -13.08      -20.95       -0.88       -9.09        4.35
(Free)E + p*V (eV/cell)   -31852.2314
Target enthalpy (eV/cell)   -31894.3476

siesta: Stress tensor (static) (eV/Ang**3):
        -0.008144   -0.000549    0.002714
        -0.000549   -0.008165   -0.005672
         0.002714   -0.005672   -0.013075

siesta: Pressure (static):         15.69297556  kBar

siesta: Stress tensor (total) (eV/Ang**3):
        -0.008144   -0.000549    0.002714
        -0.000549   -0.008165   -0.005672
         0.002714   -0.005672   -0.013075

siesta: Pressure (total):         15.69297556  kBar

cgvc: No target stress found, assuming hydrostatic MD.TargetPressure.

cgvc: Target stress (kBar)
cgvc:        -0.000       0.000       0.000
cgvc:         0.000      -0.000       0.000
cgvc:         0.000       0.000      -0.000

cgvc: WARNING: CG file not found

* Maximum dynamic memory allocated =  1564 MB

siesta:                 ==============================
                            Begin CG move =      1
                        ==============================
k-point displ. along   2 input, could be:     0.00    0.50
 Kpoints in:            4 . Kpoints trimmed:            4

siesta: k-grid: Number of k-points =     4
siesta: k-grid: Cutoff (effective) =    12.500 Ang
siesta: k-grid: Supercell and displacements
siesta: k-grid:    3   0   0      0.000
siesta: k-grid:    0   2   0      0.000
siesta: k-grid:    0   0   1      0.000
Naive supercell factors:     3    2    2

superc: Internal auxiliary supercell:     3 x     2 x     2  =      12
superc: Number of atoms, orbitals, and projectors:   1740  23004  27756

outcell: Unit cell vectors (Ang):
       10.013560    0.001346    0.000000
        0.002312   17.245176    0.000000
        0.000000    0.000000   25.000000

outcell: Cell vector modules (Ang)   :   10.013560   17.245176   25.000000
outcell: Cell angles (23,13,12) (deg):     90.0000     90.0000     89.9846
outcell: Cell volume (Ang**3)        :   4317.1399
New_DM. Step:     2
Re-using DM from previous geometry...
Re-using DM without extrapolation (not allowed)
Density Matrix sparsity pattern changed.

InitMesh: MESH =   108 x   180 x   270 =     5248800
InitMesh: Mesh cutoff (required, used) =   300.000   301.100 Ry

siesta: iscf   Eharris(eV)      E_KS(eV)   FreeEng(eV)   dDmax  Ef(eV)
siesta:    1   -31900.9847   -31896.9228   -31896.9394  0.1934 -4.7188
siesta:    2   -31908.2845   -31899.6828   -31899.7019  0.2696 -5.2726
siesta:    3   -31900.7703   -31897.7577   -31897.8314  0.1473 -4.7737
siesta:    4   -31900.9008   -31898.7853   -31898.8026  0.0880 -4.8192
siesta:    5   -31900.8439   -31899.3487   -31899.3631  0.0571 -4.8068
siesta:    6   -31900.7839   -31900.1900   -31900.2051  0.0118 -4.7830
siesta:    7   -31900.7678   -31900.3065   -31900.3240  0.0068 -4.7795
siesta:    8   -31900.7595   -31900.4002   -31900.4178  0.0043 -4.7727
siesta:    9   -31900.7567   -31900.4730   -31900.4908  0.0029 -4.7722
siesta:   10   -31900.7567   -31900.5290   -31900.5467  0.0031 -4.7721
siesta:   11   -31900.7568   -31900.5973   -31900.6147  0.0032 -4.7702
siesta:   12   -31900.7568   -31900.6741   -31900.6914  0.0016 -4.7710
siesta:   13   -31900.7565   -31900.7107   -31900.7279  0.0011 -4.7705
siesta:   14   -31900.7565   -31900.7311   -31900.7485  0.0010 -4.7710
siesta:   15   -31900.7566   -31900.7495   -31900.7669  0.0011 -4.7715
siesta:   16   -31900.7566   -31900.7601   -31900.7774  0.0010 -4.7711
siesta:   17   -31900.7567   -31900.7644   -31900.7816  0.0007 -4.7709
siesta:   18   -31900.7567   -31900.7672   -31900.7844  0.0007 -4.7711
siesta:   19   -31900.7567   -31900.7678   -31900.7849  0.0007 -4.7713
siesta:   20   -31900.7567   -31900.7617   -31900.7789  0.0006 -4.7713
siesta:   21   -31900.7568   -31900.7591   -31900.7762  0.0004 -4.7713
siesta:   22   -31900.7568   -31900.7593   -31900.7764  0.0004 -4.7713
siesta:   23   -31900.7568   -31900.7597   -31900.7767  0.0003 -4.7713
siesta:   24   -31900.7568   -31900.7595   -31900.7765  0.0003 -4.7713
siesta:   25   -31900.7568   -31900.7586   -31900.7756  0.0002 -4.7713
siesta:   26   -31900.7568   -31900.7568   -31900.7738  0.0002 -4.7713
siesta:   27   -31900.7569   -31900.7562   -31900.7732  0.0002 -4.7714
siesta:   28   -31900.7569   -31900.7560   -31900.7730  0.0001 -4.7714
siesta:   29   -31900.7569   -31900.7556   -31900.7726  0.0001 -4.7713
siesta:   30   -31900.7569   -31900.7555   -31900.7725  0.0001 -4.7713
siesta:   31   -31900.7569   -31900.7558   -31900.7728  0.0001 -4.7713

siesta: E_KS(eV) =           -31900.7560

siesta: Atomic forces (eV/Ang):
----------------------------------------
   Tot    0.031926   -0.015365   -0.091483
----------------------------------------
   Max   33.992113
   Res    2.329356    sqrt( Sum f_i^2 / 3N )
----------------------------------------
   Max   33.992113    constrained

Stress-tensor-Voigt (kbar):       -4.88       -5.98      -17.52       -0.23       -6.28        2.99
(Free)E + p*V (eV/cell)   -31875.2776
Target enthalpy (eV/cell)   -31900.7730

siesta: Stress tensor (static) (eV/Ang**3):
        -0.003049   -0.000145    0.001864
        -0.000145   -0.003732   -0.003921
         0.001864   -0.003921   -0.010937

siesta: Pressure (static):          9.46197490  kBar

siesta: Stress tensor (total) (eV/Ang**3):
        -0.003049   -0.000145    0.001864
        -0.000145   -0.003732   -0.003921
         0.001864   -0.003921   -0.010937

siesta: Pressure (total):          9.46197490  kBar

* Maximum dynamic memory allocated =  1593 MB

siesta:                 ==============================
                            Begin CG move =      2
                        ==============================
k-point displ. along   2 input, could be:     0.00    0.50
 Kpoints in:            4 . Kpoints trimmed:            4

siesta: k-grid: Number of k-points =     4
siesta: k-grid: Cutoff (effective) =    12.500 Ang
siesta: k-grid: Supercell and displacements
siesta: k-grid:    3   0   0      0.000
siesta: k-grid:    0   2   0      0.000
siesta: k-grid:    0   0   1      0.000
Naive supercell factors:     3    2    2

superc: Internal auxiliary supercell:     3 x     2 x     2  =      12
superc: Number of atoms, orbitals, and projectors:   1740  23004  27756

outcell: Unit cell vectors (Ang):
       10.044712    0.003445    0.000000
        0.005927   17.298962    0.000000
        0.000000    0.000000   25.000000

outcell: Cell vector modules (Ang)   :   10.044712   17.298963   25.000000
outcell: Cell angles (23,13,12) (deg):     90.0000     90.0000     89.9607
outcell: Cell volume (Ang**3)        :   4344.0766
New_DM. Step:     3
Re-using DM from previous geometry...
Re-using DM without extrapolation (not allowed)
Density Matrix sparsity pattern changed.

InitMesh: MESH =   108 x   192 x   270 =     5598720
InitMesh: Mesh cutoff (required, used) =   300.000   319.503 Ry

siesta: iscf   Eharris(eV)      E_KS(eV)   FreeEng(eV)   dDmax  Ef(eV)
siesta:    1   -31906.4998   -31900.3366   -31900.3536  0.1779 -4.7369
siesta:    2   -31914.1537   -31905.2336   -31905.2538  0.3779 -5.2167
siesta:    3   -31906.3090   -31901.8204   -31901.8738  0.1306 -4.7970
siesta:    4   -31906.4388   -31903.6469   -31903.6618  0.0706 -4.8258
siesta:    5   -31906.3926   -31904.8819   -31904.8977  0.0309 -4.8102
siesta:    6   -31906.3119   -31905.5789   -31905.5962  0.0096 -4.7916
siesta:    7   -31906.2946   -31905.7794   -31905.7963  0.0112 -4.7908
siesta:    8   -31906.2899   -31905.9087   -31905.9246  0.0082 -4.7858
siesta:    9   -31906.2888   -31906.0053   -31906.0215  0.0058 -4.7834
siesta:   10   -31906.2889   -31906.0982   -31906.1145  0.0044 -4.7827
siesta:   11   -31906.2891   -31906.1798   -31906.1960  0.0040 -4.7832
siesta:   12   -31906.2890   -31906.2450   -31906.2608  0.0020 -4.7829
siesta:   13   -31906.2891   -31906.2636   -31906.2795  0.0017 -4.7846
siesta:   14   -31906.2891   -31906.2884   -31906.3040  0.0012 -4.7844
siesta:   15   -31906.2893   -31906.3152   -31906.3309  0.0015 -4.7840
siesta:   16   -31906.2894   -31906.3118   -31906.3273  0.0015 -4.7844
siesta:   17   -31906.2895   -31906.3073   -31906.3228  0.0007 -4.7845
siesta:   18   -31906.2896   -31906.3050   -31906.3203  0.0006 -4.7848
siesta:   19   -31906.2897   -31906.3073   -31906.3226  0.0007 -4.7849
siesta:   20   -31906.2897   -31906.2987   -31906.3138  0.0006 -4.7848
siesta:   21   -31906.2897   -31906.2955   -31906.3106  0.0005 -4.7848
siesta:   22   -31906.2898   -31906.2909   -31906.3060  0.0004 -4.7851
siesta:   23   -31906.2898   -31906.2887   -31906.3038  0.0004 -4.7851
siesta:   24   -31906.2898   -31906.2881   -31906.3032  0.0004 -4.7850
siesta:   25   -31906.2898   -31906.2887   -31906.3038  0.0003 -4.7851
siesta:   26   -31906.2898   -31906.2889   -31906.3039  0.0002 -4.7851
siesta:   27   -31906.2898   -31906.2887   -31906.3037  0.0002 -4.7851
siesta:   28   -31906.2898   -31906.2888   -31906.3038  0.0002 -4.7851
siesta:   29   -31906.2898   -31906.2889   -31906.3039  0.0002 -4.7851
siesta:   30   -31906.2898   -31906.2899   -31906.3049  0.0001 -4.7851
siesta:   31   -31906.2898   -31906.2903   -31906.3053  0.0001 -4.7851
siesta:   32   -31906.2898   -31906.2899   -31906.3049  0.0001 -4.7851

siesta: E_KS(eV) =           -31906.2898

siesta: Atomic forces (eV/Ang):
----------------------------------------
   Tot   -0.216035    0.034095   -0.001911
----------------------------------------
   Max   19.293175
   Res    1.166273    sqrt( Sum f_i^2 / 3N )
----------------------------------------
   Max   19.293175    constrained

Stress-tensor-Voigt (kbar):        5.50        4.21      -13.01        0.43       -2.78        1.40
(Free)E + p*V (eV/cell)   -31903.3224
Target enthalpy (eV/cell)   -31906.3048

siesta: Stress tensor (static) (eV/Ang**3):
         0.003431    0.000266    0.000875
         0.000266    0.002630   -0.001734
         0.000875   -0.001734   -0.008120

siesta: Pressure (static):          1.09996390  kBar

siesta: Stress tensor (total) (eV/Ang**3):
         0.003431    0.000266    0.000875
         0.000266    0.002630   -0.001734
         0.000875   -0.001734   -0.008120

siesta: Pressure (total):          1.09996390  kBar

* Maximum dynamic memory allocated =  1641 MB

siesta:                 ==============================
                            Begin CG move =      3
                        ==============================
k-point displ. along   2 input, could be:     0.00    0.50
 Kpoints in:            4 . Kpoints trimmed:            4

siesta: k-grid: Number of k-points =     4
siesta: k-grid: Cutoff (effective) =    12.500 Ang
siesta: k-grid: Supercell and displacements
siesta: k-grid:    3   0   0      0.000
siesta: k-grid:    0   2   0      0.000
siesta: k-grid:    0   0   1      0.000
Naive supercell factors:     3    2    2

superc: Internal auxiliary supercell:     3 x     2 x     2  =      12
superc: Number of atoms, orbitals, and projectors:   1740  23004  27756

outcell: Unit cell vectors (Ang):
       10.075864    0.005544    0.000000
        0.009541   17.352748    0.000000
        0.000000    0.000000   25.000000

outcell: Cell vector modules (Ang)   :   10.075865   17.352750   25.000000
outcell: Cell angles (23,13,12) (deg):     90.0000     90.0000     89.9370
outcell: Cell volume (Ang**3)        :   4371.0967
New_DM. Step:     4
Re-using DM from previous geometry...
Re-using DM without extrapolation (not allowed)
Density Matrix sparsity pattern changed.

InitMesh: MESH =   108 x   192 x   270 =     5598720
InitMesh: Mesh cutoff (required, used) =   300.000   317.530 Ry

siesta: iscf   Eharris(eV)      E_KS(eV)   FreeEng(eV)   dDmax  Ef(eV)
siesta:    1   -31908.4292   -31902.6054   -31902.6204  0.0691 -4.7899
siesta:    2   -31921.3383   -31907.1279   -31907.1483  0.4487 -5.5287
siesta:    3   -31908.3141   -31903.4198   -31903.4942  0.0584 -4.8160
siesta:    4   -31908.2979   -31904.2163   -31904.2294  0.0477 -4.8126
siesta:    5   -31908.3247   -31906.5129   -31906.5236  0.0180 -4.8303
siesta:    6   -31908.2978   -31907.3216   -31907.3353  0.0219 -4.8324
siesta:    7   -31908.2925   -31907.6516   -31907.6623  0.0204 -4.8258
siesta:    8   -31908.2866   -31907.8507   -31907.8614  0.0166 -4.8111
siesta:    9   -31908.2850   -31907.9781   -31907.9896  0.0135 -4.8063
siesta:   10   -31908.2856   -31908.1025   -31908.1140  0.0079 -4.8048
siesta:   11   -31908.2847   -31908.1600   -31908.1715  0.0052 -4.8054
siesta:   12   -31908.2849   -31908.2577   -31908.2690  0.0027 -4.8067
siesta:   13   -31908.2851   -31908.2583   -31908.2692  0.0030 -4.8092
siesta:   14   -31908.2852   -31908.2954   -31908.3059  0.0027 -4.8096
siesta:   15   -31908.2853   -31908.3000   -31908.3104  0.0019 -4.8099
siesta:   16   -31908.2854   -31908.3123   -31908.3226  0.0017 -4.8100
siesta:   17   -31908.2856   -31908.3138   -31908.3240  0.0018 -4.8105
siesta:   18   -31908.2856   -31908.3040   -31908.3141  0.0015 -4.8104
siesta:   19   -31908.2857   -31908.2994   -31908.3094  0.0012 -4.8100
siesta:   20   -31908.2857   -31908.2970   -31908.3070  0.0011 -4.8101
siesta:   21   -31908.2858   -31908.2898   -31908.2997  0.0007 -4.8105
siesta:   22   -31908.2858   -31908.2870   -31908.2969  0.0005 -4.8106
siesta:   23   -31908.2858   -31908.2861   -31908.2960  0.0004 -4.8106
siesta:   24   -31908.2859   -31908.2868   -31908.2966  0.0004 -4.8106
siesta:   25   -31908.2859   -31908.2878   -31908.2976  0.0003 -4.8106
siesta:   26   -31908.2859   -31908.2866   -31908.2964  0.0003 -4.8107
siesta:   27   -31908.2859   -31908.2859   -31908.2957  0.0003 -4.8106
siesta:   28   -31908.2859   -31908.2850   -31908.2947  0.0002 -4.8106
siesta:   29   -31908.2859   -31908.2841   -31908.2939  0.0002 -4.8106
siesta:   30   -31908.2859   -31908.2838   -31908.2936  0.0002 -4.8106
siesta:   31   -31908.2859   -31908.2840   -31908.2938  0.0002 -4.8107
siesta:   32   -31908.2859   -31908.2843   -31908.2941  0.0002 -4.8107
siesta:   33   -31908.2859   -31908.2851   -31908.2949  0.0001 -4.8107
siesta:   34   -31908.2859   -31908.2855   -31908.2953  0.0001 -4.8107
siesta:   35   -31908.2859   -31908.2857   -31908.2955  0.0001 -4.8107
siesta:   36   -31908.2859   -31908.2861   -31908.2959  0.0001 -4.8107
siesta:   37   -31908.2859   -31908.2861   -31908.2959  0.0001 -4.8107
siesta:   38   -31908.2859   -31908.2862   -31908.2960  0.0001 -4.8107
siesta:   39   -31908.2859   -31908.2863   -31908.2961  0.0001 -4.8107
siesta:   40   -31908.2859   -31908.2863   -31908.2961  0.0001 -4.8107
siesta:   41   -31908.2859   -31908.2864   -31908.2962  0.0001 -4.8107
siesta:   42   -31908.2859   -31908.2863   -31908.2961  0.0001 -4.8107
siesta:   43   -31908.2859   -31908.2861   -31908.2959  0.0001 -4.8107
siesta:   44   -31908.2859   -31908.2859   -31908.2957  0.0001 -4.8107

siesta: E_KS(eV) =           -31908.2859

siesta: Atomic forces (eV/Ang):
----------------------------------------
   Tot   -0.393888   -0.000660   -0.005290
----------------------------------------
   Max   10.534760
   Res    0.823979    sqrt( Sum f_i^2 / 3N )
----------------------------------------
   Max   10.534760    constrained

Stress-tensor-Voigt (kbar):       14.14       11.68      -10.01        0.81       -0.37        0.34
(Free)E + p*V (eV/cell)   -31922.6790
Target enthalpy (eV/cell)   -31908.2957

siesta: Stress tensor (static) (eV/Ang**3):
         0.008825    0.000503    0.000213
         0.000503    0.007292   -0.000230
         0.000213   -0.000230   -0.006245

siesta: Pressure (static):         -5.27212414  kBar

siesta: Stress tensor (total) (eV/Ang**3):
         0.008825    0.000503    0.000213
         0.000503    0.007292   -0.000230
         0.000213   -0.000230   -0.006245

siesta: Pressure (total):         -5.27212414  kBar

* Maximum dynamic memory allocated =  1661 MB

siesta:                 ==============================
                            Begin CG move =      4
                        ==============================
k-point displ. along   2 input, could be:     0.00    0.50
 Kpoints in:            4 . Kpoints trimmed:            4

siesta: k-grid: Number of k-points =     4
siesta: k-grid: Cutoff (effective) =    12.500 Ang
siesta: k-grid: Supercell and displacements
siesta: k-grid:    3   0   0      0.000
siesta: k-grid:    0   2   0      0.000
siesta: k-grid:    0   0   1      0.000
Naive supercell factors:     3    2    2

superc: Internal auxiliary supercell:     3 x     2 x     2  =      12
superc: Number of atoms, orbitals, and projectors:   1740  23004  27756

outcell: Unit cell vectors (Ang):
       10.107016    0.007642    0.000000
        0.013156   17.406533    0.000000
        0.000000    0.000000   25.000000

outcell: Cell vector modules (Ang)   :   10.107019   17.406538   25.000000
outcell: Cell angles (23,13,12) (deg):     90.0000     90.0000     89.9134
outcell: Cell volume (Ang**3)        :   4398.2001
New_DM. Step:     5
Re-using DM from previous geometry...
Re-using DM without extrapolation (not allowed)
Density Matrix sparsity pattern changed.

InitMesh: MESH =   108 x   192 x   270 =     5598720
InitMesh: Mesh cutoff (required, used) =   300.000   315.576 Ry

siesta: iscf   Eharris(eV)      E_KS(eV)   FreeEng(eV)   dDmax  Ef(eV)
siesta:    1   -31908.3222   -31902.7474   -31902.7572  0.0825 -4.8269
siesta:    2   -31925.9079   -31906.6919   -31906.7110  0.4812 -5.6405
siesta:    3   -31908.1942   -31903.3828   -31903.4689  0.0459 -4.8531
siesta:    4   -31908.1727   -31903.9448   -31903.9565  0.0395 -4.8432
siesta:    5   -31908.1812   -31905.9241   -31905.9319  0.0177 -4.8566
siesta:    6   -31908.1638   -31907.0474   -31907.0573  0.0233 -4.8811
siesta:    7   -31908.1611   -31907.4967   -31907.5046  0.0216 -4.8786
siesta:    8   -31908.1575   -31907.7157   -31907.7234  0.0166 -4.8581
siesta:    9   -31908.1556   -31907.8582   -31907.8657  0.0129 -4.8467
siesta:   10   -31908.1558   -31907.9750   -31907.9823  0.0086 -4.8424
siesta:   11   -31908.1551   -31908.0502   -31908.0574  0.0047 -4.8420
siesta:   12   -31908.1551   -31908.1093   -31908.1165  0.0028 -4.8466
siesta:   13   -31908.1552   -31908.1293   -31908.1362  0.0032 -4.8510
siesta:   14   -31908.1554   -31908.1624   -31908.1690  0.0029 -4.8525
siesta:   15   -31908.1555   -31908.1811   -31908.1876  0.0021 -4.8527
siesta:   16   -31908.1555   -31908.1855   -31908.1920  0.0020 -4.8529
siesta:   17   -31908.1557   -31908.1825   -31908.1889  0.0018 -4.8531
siesta:   18   -31908.1558   -31908.1656   -31908.1719  0.0012 -4.8532
siesta:   19   -31908.1558   -31908.1626   -31908.1688  0.0010 -4.8533
siesta:   20   -31908.1559   -31908.1591   -31908.1653  0.0008 -4.8532
siesta:   21   -31908.1559   -31908.1581   -31908.1642  0.0006 -4.8531
siesta:   22   -31908.1559   -31908.1572   -31908.1633  0.0005 -4.8531
siesta:   23   -31908.1559   -31908.1562   -31908.1622  0.0004 -4.8532
siesta:   24   -31908.1560   -31908.1567   -31908.1628  0.0003 -4.8535
siesta:   25   -31908.1560   -31908.1570   -31908.1630  0.0003 -4.8535
siesta:   26   -31908.1560   -31908.1566   -31908.1626  0.0003 -4.8536
siesta:   27   -31908.1560   -31908.1553   -31908.1613  0.0002 -4.8535
siesta:   28   -31908.1560   -31908.1545   -31908.1605  0.0002 -4.8534
siesta:   29   -31908.1560   -31908.1541   -31908.1602  0.0002 -4.8534
siesta:   30   -31908.1560   -31908.1540   -31908.1600  0.0002 -4.8535
siesta:   31   -31908.1560   -31908.1538   -31908.1598  0.0002 -4.8535
siesta:   32   -31908.1560   -31908.1538   -31908.1598  0.0002 -4.8535
siesta:   33   -31908.1560   -31908.1541   -31908.1601  0.0001 -4.8536
siesta:   34   -31908.1560   -31908.1546   -31908.1606  0.0001 -4.8536
siesta:   35   -31908.1560   -31908.1548   -31908.1608  0.0001 -4.8536
siesta:   36   -31908.1560   -31908.1553   -31908.1613  0.0001 -4.8535
siesta:   37   -31908.1560   -31908.1555   -31908.1615  0.0001 -4.8535
siesta:   38   -31908.1560   -31908.1557   -31908.1617  0.0001 -4.8535
siesta:   39   -31908.1560   -31908.1558   -31908.1618  0.0001 -4.8535
siesta:   40   -31908.1560   -31908.1560   -31908.1620  0.0001 -4.8535

siesta: E_KS(eV) =           -31908.1561

siesta: Atomic forces (eV/Ang):
----------------------------------------
   Tot   -0.299807   -0.010767   -0.015411
----------------------------------------
   Max   12.923906
   Res    1.059568    sqrt( Sum f_i^2 / 3N )
----------------------------------------
   Max   12.923906    constrained

Stress-tensor-Voigt (kbar):       20.90       17.32       -8.25        1.33        1.36       -0.26
(Free)E + p*V (eV/cell)   -31935.5895
Target enthalpy (eV/cell)   -31908.1621

siesta: Stress tensor (static) (eV/Ang**3):
         0.013043    0.000828   -0.000161
         0.000828    0.010813    0.000849
        -0.000161    0.000849   -0.005148

siesta: Pressure (static):         -9.99135584  kBar

siesta: Stress tensor (total) (eV/Ang**3):
         0.013043    0.000828   -0.000161
         0.000828    0.010813    0.000849
        -0.000161    0.000849   -0.005148

siesta: Pressure (total):         -9.99135584  kBar

* Maximum dynamic memory allocated =  1664 MB

siesta:                 ==============================
                            Begin CG move =      5
                        ==============================
k-point displ. along   2 input, could be:     0.00    0.50
 Kpoints in:            4 . Kpoints trimmed:            4

siesta: k-grid: Number of k-points =     4
siesta: k-grid: Cutoff (effective) =    12.500 Ang
siesta: k-grid: Supercell and displacements
siesta: k-grid:    3   0   0      0.000
siesta: k-grid:    0   2   0      0.000
siesta: k-grid:    0   0   1      0.000
Naive supercell factors:     3    2    2

superc: Internal auxiliary supercell:     3 x     2 x     2  =      12
superc: Number of atoms, orbitals, and projectors:   1740  23004  27756

outcell: Unit cell vectors (Ang):
       10.089974    0.006494    0.000000
        0.011178   17.377110    0.000000
        0.000000    0.000000   25.000000

outcell: Cell vector modules (Ang)   :   10.089976   17.377114   25.000000
outcell: Cell angles (23,13,12) (deg):     90.0000     90.0000     89.9263
outcell: Cell volume (Ang**3)        :   4383.3628
New_DM. Step:     6
Re-using DM from previous geometry...
Re-using DM without extrapolation (not allowed)
Density Matrix sparsity pattern changed.

InitMesh: MESH =   108 x   192 x   270 =     5598720
InitMesh: Mesh cutoff (required, used) =   300.000   316.643 Ry

siesta: iscf   Eharris(eV)      E_KS(eV)   FreeEng(eV)   dDmax  Ef(eV)
siesta:    1   -31908.4724   -31911.2163   -31911.2224  0.0301 -4.8954
siesta:    2   -31909.9290   -31908.2582   -31908.2654  0.2413 -4.8861
siesta:    3   -31908.4458   -31910.6095   -31910.6430  0.0237 -4.8680
siesta:    4   -31908.4481   -31909.9156   -31909.9212  0.0165 -4.8401
siesta:    5   -31908.4432   -31908.8485   -31908.8554  0.0124 -4.8091
siesta:    6   -31908.4384   -31908.4920   -31908.5018  0.0033 -4.8126
siesta:    7   -31908.4370   -31908.4397   -31908.4484  0.0074 -4.8227
siesta:    8   -31908.4366   -31908.4256   -31908.4333  0.0042 -4.8290
siesta:    9   -31908.4361   -31908.4212   -31908.4286  0.0024 -4.8296
siesta:   10   -31908.4361   -31908.4209   -31908.4285  0.0016 -4.8304
siesta:   11   -31908.4361   -31908.4250   -31908.4325  0.0012 -4.8309
siesta:   12   -31908.4358   -31908.4284   -31908.4358  0.0007 -4.8287
siesta:   13   -31908.4358   -31908.4267   -31908.4343  0.0003 -4.8275
siesta:   14   -31908.4357   -31908.4297   -31908.4374  0.0003 -4.8274
siesta:   15   -31908.4358   -31908.4354   -31908.4430  0.0003 -4.8275
siesta:   16   -31908.4358   -31908.4356   -31908.4433  0.0003 -4.8274
siesta:   17   -31908.4358   -31908.4355   -31908.4432  0.0003 -4.8275
siesta:   18   -31908.4358   -31908.4355   -31908.4432  0.0003 -4.8276
siesta:   19   -31908.4358   -31908.4354   -31908.4430  0.0003 -4.8276
siesta:   20   -31908.4358   -31908.4351   -31908.4428  0.0002 -4.8276
siesta:   21   -31908.4358   -31908.4350   -31908.4426  0.0002 -4.8276
siesta:   22   -31908.4358   -31908.4349   -31908.4425  0.0002 -4.8275
siesta:   23   -31908.4358   -31908.4356   -31908.4432  0.0002 -4.8275
siesta:   24   -31908.4358   -31908.4363   -31908.4439  0.0002 -4.8276
siesta:   25   -31908.4358   -31908.4367   -31908.4443  0.0002 -4.8276
siesta:   26   -31908.4358   -31908.4367   -31908.4443  0.0002 -4.8276
siesta:   27   -31908.4358   -31908.4368   -31908.4444  0.0001 -4.8276
siesta:   28   -31908.4358   -31908.4367   -31908.4443  0.0001 -4.8276
siesta:   29   -31908.4358   -31908.4364   -31908.4440  0.0001 -4.8276
siesta:   30   -31908.4358   -31908.4362   -31908.4438  0.0001 -4.8276

siesta: E_KS(eV) =           -31908.4362

siesta: Atomic forces (eV/Ang):
----------------------------------------
   Tot   -0.385300   -0.004127   -0.031228
----------------------------------------
   Max    9.543858
   Res    0.890331    sqrt( Sum f_i^2 / 3N )
----------------------------------------
   Max    9.543858    constrained

Stress-tensor-Voigt (kbar):       17.35       14.36       -9.09        1.01        0.46        0.02
(Free)E + p*V (eV/cell)   -31929.0797
Target enthalpy (eV/cell)   -31908.4438

siesta: Stress tensor (static) (eV/Ang**3):
         0.010829    0.000630    0.000014
         0.000630    0.008966    0.000289
         0.000014    0.000289   -0.005671

siesta: Pressure (static):         -7.54276919  kBar

siesta: Stress tensor (total) (eV/Ang**3):
         0.010829    0.000630    0.000014
         0.000630    0.008966    0.000289
         0.000014    0.000289   -0.005671

siesta: Pressure (total):         -7.54276919  kBar

cgvc: Finished line minimization    1.  Mean atomic displacement =    0.0312

* Maximum dynamic memory allocated =  1670 MB

siesta:                 ==============================
                            Begin CG move =      6
                        ==============================
k-point displ. along   2 input, could be:     0.00    0.50
 Kpoints in:            4 . Kpoints trimmed:            4

siesta: k-grid: Number of k-points =     4
siesta: k-grid: Cutoff (effective) =    12.500 Ang
siesta: k-grid: Supercell and displacements
siesta: k-grid:    3   0   0      0.000
siesta: k-grid:    0   2   0      0.000
siesta: k-grid:    0   0   1      0.000
Naive supercell factors:     3    2    2

superc: Internal auxiliary supercell:     3 x     2 x     2  =      12
superc: Number of atoms, orbitals, and projectors:   1740  23004  27756

outcell: Unit cell vectors (Ang):
        9.940335   -0.002103    0.000000
       -0.003628   17.167249    0.000000
        0.000000    0.000000   25.000000

outcell: Cell vector modules (Ang)   :    9.940335   17.167249   25.000000
outcell: Cell angles (23,13,12) (deg):     90.0000     90.0000     90.0242
outcell: Cell volume (Ang**3)        :   4266.2047
New_DM. Step:     7
Re-using DM from previous geometry...
Re-using DM without extrapolation (not allowed)
Density Matrix sparsity pattern changed.

InitMesh: MESH =   108 x   180 x   270 =     5248800
InitMesh: Mesh cutoff (required, used) =   300.000   303.840 Ry

siesta: iscf   Eharris(eV)      E_KS(eV)   FreeEng(eV)   dDmax  Ef(eV)
siesta:    1   -31914.1469   -31930.3102   -31930.3178  0.0931 -5.3057
siesta:    2   -33374.6251   -31865.0638   -31865.1325  9.5837 -2.9090
siesta:    3   -31911.6053   -31928.4739   -31928.5951  0.0677 -5.0416
siesta:    4   -31910.8277   -31926.6256   -31926.6426  0.0500 -4.9651
siesta:    5   -31910.6707   -31923.9048   -31923.9382  0.0363 -4.9236
siesta:    6   -31910.6041   -31918.1871   -31918.1990  0.0234 -4.8396
siesta:    7   -31910.7513   -31908.9474   -31908.9573  0.0259 -4.7410
siesta:    8   -31910.6134   -31907.8198   -31907.8318  0.0171 -4.8032
siesta:    9   -31910.5981   -31907.5435   -31907.5528  0.0161 -4.8393
siesta:   10   -31910.5931   -31907.3797   -31907.3891  0.0160 -4.8853
siesta:   11   -31910.5842   -31907.4210   -31907.4310  0.0158 -4.9014
siesta:   12   -31910.5844   -31907.5840   -31907.5943  0.0148 -4.9043
siesta:   13   -31910.5773   -31908.2891   -31908.2995  0.0110 -4.8837
siesta:   14   -31910.5721   -31909.4184   -31909.4290  0.0060 -4.8496
siesta:   15   -31910.5727   -31909.9575   -31909.9679  0.0029 -4.8556
siesta:   16   -31910.5714   -31910.2025   -31910.2124  0.0018 -4.8536
siesta:   17   -31910.5710   -31910.2602   -31910.2702  0.0019 -4.8523
siesta:   18   -31910.5707   -31910.4058   -31910.4159  0.0016 -4.8477
siesta:   19   -31910.5706   -31910.5071   -31910.5173  0.0014 -4.8449
siesta:   20   -31910.5705   -31910.5878   -31910.5980  0.0015 -4.8419
siesta:   21   -31910.5705   -31910.6073   -31910.6175  0.0012 -4.8407
siesta:   22   -31910.5705   -31910.5914   -31910.6016  0.0009 -4.8403
siesta:   23   -31910.5705   -31910.5937   -31910.6039  0.0008 -4.8399
siesta:   24   -31910.5704   -31910.5997   -31910.6099  0.0008 -4.8393
siesta:   25   -31910.5704   -31910.5745   -31910.5848  0.0007 -4.8384
siesta:   26   -31910.5704   -31910.5633   -31910.5736  0.0006 -4.8383
siesta:   27   -31910.5704   -31910.5746   -31910.5849  0.0005 -4.8378
siesta:   28   -31910.5704   -31910.5832   -31910.5935  0.0005 -4.8376
siesta:   29   -31910.5703   -31910.5798   -31910.5902  0.0004 -4.8377
siesta:   30   -31910.5703   -31910.5743   -31910.5847  0.0003 -4.8378
siesta:   31   -31910.5703   -31910.5693   -31910.5797  0.0003 -4.8378
siesta:   32   -31910.5703   -31910.5701   -31910.5805  0.0002 -4.8377
siesta:   33   -31910.5703   -31910.5701   -31910.5806  0.0002 -4.8377
siesta:   34   -31910.5702   -31910.5624   -31910.5729  0.0001 -4.8379

siesta: E_KS(eV) =           -31910.5586

siesta: Atomic forces (eV/Ang):
----------------------------------------
   Tot    0.059791   -0.030276    0.008531
----------------------------------------
   Max    4.705749
   Res    0.468283    sqrt( Sum f_i^2 / 3N )
----------------------------------------
   Max    4.705749    constrained

Stress-tensor-Voigt (kbar):      -19.02      -11.07      -14.04       -0.74        0.37        0.20
(Free)E + p*V (eV/cell)   -31871.3985
Target enthalpy (eV/cell)   -31910.5691

siesta: Stress tensor (static) (eV/Ang**3):
        -0.011872   -0.000460    0.000122
        -0.000460   -0.006908    0.000231
         0.000122    0.000231   -0.008765

siesta: Pressure (static):         14.71072026  kBar

siesta: Stress tensor (total) (eV/Ang**3):
        -0.011872   -0.000460    0.000122
        -0.000460   -0.006908    0.000231
         0.000122    0.000231   -0.008765

siesta: Pressure (total):         14.71072026  kBar

* Maximum dynamic memory allocated =  1677 MB

siesta:                 ==============================
                            Begin CG move =      7
                        ==============================
k-point displ. along   2 input, could be:     0.00    0.50
 Kpoints in:            4 . Kpoints trimmed:            4

siesta: k-grid: Number of k-points =     4
siesta: k-grid: Cutoff (effective) =    12.500 Ang
siesta: k-grid: Supercell and displacements
siesta: k-grid:    3   0   0      0.000
siesta: k-grid:    0   2   0      0.000
siesta: k-grid:    0   0   1      0.000
Naive supercell factors:     3    2    2

superc: Internal auxiliary supercell:     3 x     2 x     2  =      12
superc: Number of atoms, orbitals, and projectors:   1740  23004  27756

outcell: Unit cell vectors (Ang):
        9.790695   -0.010701    0.000000
       -0.018434   16.957388    0.000000
        0.000000    0.000000   25.000000

outcell: Cell vector modules (Ang)   :    9.790701   16.957398   25.000000
outcell: Cell angles (23,13,12) (deg):     90.0000     90.0000     90.1249
outcell: Cell volume (Ang**3)        :   4150.6104
New_DM. Step:     8
Re-using DM from previous geometry...
Re-using DM without extrapolation (not allowed)
Density Matrix sparsity pattern changed.

InitMesh: MESH =   108 x   180 x   270 =     5248800
InitMesh: Mesh cutoff (required, used) =   300.000   311.408 Ry

siesta: iscf   Eharris(eV)      E_KS(eV)   FreeEng(eV)   dDmax  Ef(eV)
siesta:    1   -31911.9138   -31929.9854   -31929.9958  0.0894 -5.3055
siesta:    2   -33066.0050   -31870.3775   -31870.4267  7.6931 -2.7360
siesta:    3   -31909.7215   -31927.8638   -31927.9747  0.0663 -5.0657
siesta:    4   -31908.8212   -31925.3390   -31925.3530  0.0606 -4.9236
siesta:    5   -31908.6646   -31919.4878   -31919.5215  0.0586 -4.7646
siesta:    6   -31908.6293   -31913.2590   -31913.2766  0.0301 -4.7375
siesta:    7   -31908.7075   -31906.5516   -31906.5648  0.0419 -4.7287
siesta:    8   -31908.5825   -31904.3209   -31904.3334  0.0239 -4.8165
siesta:    9   -31908.5622   -31904.2385   -31904.2545  0.0228 -4.8759
siesta:   10   -31908.5525   -31904.0796   -31904.0962  0.0214 -4.9211
siesta:   11   -31908.5295   -31904.0849   -31904.1056  0.0216 -4.9186
siesta:   12   -31908.5261   -31904.3526   -31904.3733  0.0201 -4.9273
siesta:   13   -31908.5262   -31904.7235   -31904.7435  0.0182 -4.9283
siesta:   14   -31908.5214   -31906.3416   -31906.3620  0.0101 -4.9005
siesta:   15   -31908.5215   -31906.9622   -31906.9793  0.0069 -4.9000
siesta:   16   -31908.5190   -31907.2466   -31907.2633  0.0064 -4.8884
siesta:   17   -31908.5185   -31907.4466   -31907.4630  0.0063 -4.8876
siesta:   18   -31908.5188   -31907.7612   -31907.7775  0.0050 -4.8924
siesta:   19   -31908.5175   -31908.2752   -31908.2915  0.0039 -4.8829
siesta:   20   -31908.5169   -31908.3517   -31908.3681  0.0037 -4.8747
siesta:   21   -31908.5168   -31908.3956   -31908.4120  0.0034 -4.8721
siesta:   22   -31908.5166   -31908.4213   -31908.4378  0.0044 -4.8665
siesta:   23   -31908.5167   -31908.3963   -31908.4130  0.0043 -4.8680
siesta:   24   -31908.5165   -31908.5191   -31908.5357  0.0041 -4.8614
siesta:   25   -31908.5165   -31908.5010   -31908.5177  0.0040 -4.8623
siesta:   26   -31908.5165   -31908.5377   -31908.5544  0.0041 -4.8622
siesta:   27   -31908.5165   -31908.4846   -31908.5013  0.0042 -4.8632
siesta:   28   -31908.5165   -31908.4036   -31908.4203  0.0040 -4.8621
siesta:   29   -31908.5166   -31908.4389   -31908.4555  0.0042 -4.8630
siesta:   30   -31908.5165   -31908.4112   -31908.4278  0.0040 -4.8614
siesta:   31   -31908.5165   -31908.4126   -31908.4293  0.0040 -4.8611
siesta:   32   -31908.5165   -31908.4847   -31908.5014  0.0038 -4.8557
siesta:   33   -31908.5166   -31908.5269   -31908.5436  0.0032 -4.8563
siesta:   34   -31908.5166   -31908.5293   -31908.5461  0.0032 -4.8559
siesta:   35   -31908.5166   -31908.5049   -31908.5217  0.0034 -4.8564
siesta:   36   -31908.5166   -31908.5684   -31908.5851  0.0028 -4.8554
siesta:   37   -31908.5166   -31908.5195   -31908.5363  0.0028 -4.8570
siesta:   38   -31908.5166   -31908.5538   -31908.5706  0.0028 -4.8568
siesta:   39   -31908.5166   -31908.5446   -31908.5614  0.0028 -4.8566
siesta:   40   -31908.5166   -31908.5493   -31908.5661  0.0028 -4.8553
siesta:   41   -31908.5166   -31908.5891   -31908.6059  0.0029 -4.8544
siesta:   42   -31908.5166   -31908.5595   -31908.5764  0.0028 -4.8562
siesta:   43   -31908.5166   -31908.5072   -31908.5240  0.0029 -4.8560
siesta:   44   -31908.5166   -31908.5037   -31908.5205  0.0032 -4.8556
siesta:   45   -31908.5166   -31908.5096   -31908.5264  0.0029 -4.8564
siesta:   46   -31908.5166   -31908.5490   -31908.5658  0.0029 -4.8548
[...]
         0.001570   -0.002972    0.000306
         0.000100    0.000306   -0.002002

siesta: Pressure (total):          4.87293514  kBar

* Maximum dynamic memory allocated =  1858 MB

siesta:                 ==============================
                            Begin CG move =     70
                        ==============================
k-point displ. along   2 input, could be:     0.00    0.50
 Kpoints in:            4 . Kpoints trimmed:            4

siesta: k-grid: Number of k-points =     4
siesta: k-grid: Cutoff (effective) =    12.500 Ang
siesta: k-grid: Supercell and displacements
siesta: k-grid:    3   0   0      0.000
siesta: k-grid:    0   2   0      0.000
siesta: k-grid:    0   0   1      0.000
Naive supercell factors:     3    2    2

superc: Internal auxiliary supercell:     3 x     2 x     2  =      12
superc: Number of atoms, orbitals, and projectors:   1740  23004  27756

outcell: Unit cell vectors (Ang):
        9.988225    0.009762    0.000000
        0.016807   17.219075    0.000000
        0.000000    0.000000   25.000000

outcell: Cell vector modules (Ang)   :    9.988230   17.219083   25.000000
outcell: Cell angles (23,13,12) (deg):     90.0000     90.0000     89.8881
outcell: Cell volume (Ang**3)        :   4299.6959
New_DM. Step:    71
Re-using DM from previous geometry...
Re-using DM without extrapolation (not allowed)
Density Matrix sparsity pattern changed.

InitMesh: MESH =   108 x   180 x   270 =     5248800
InitMesh: Mesh cutoff (required, used) =   300.000   302.015 Ry

siesta: iscf   Eharris(eV)      E_KS(eV)   FreeEng(eV)   dDmax  Ef(eV)
siesta:    1   -31915.0225   -31912.2843   -31912.3129  0.0324 -4.8626
siesta:    2   -31918.8196   -31914.6300   -31914.6456  0.1840 -5.2859
siesta:    3   -31914.9696   -31912.6844   -31912.7506  0.0124 -4.8939
siesta:    4   -31914.9583   -31912.9141   -31912.9340  0.0111 -4.9168
siesta:    5   -31914.9658   -31913.7597   -31913.7814  0.0521 -4.9326
siesta:    6   -31914.9614   -31913.7493   -31913.7850  0.0494 -4.9330
siesta:    7   -31914.9534   -31913.8630   -31913.8977  0.0351 -4.9325
siesta:    8   -31914.9480   -31914.7431   -31914.7768  0.0119 -4.9294
siesta:    9   -31914.9476   -31914.7986   -31914.8259  0.0048 -4.9320
siesta:   10   -31914.9478   -31914.8616   -31914.8884  0.0101 -4.9296
siesta:   11   -31914.9478   -31914.8828   -31914.9087  0.0061 -4.9303
siesta:   12   -31914.9461   -31914.9242   -31914.9500  0.0025 -4.9310
siesta:   13   -31914.9465   -31914.9397   -31914.9669  0.0005 -4.9308
siesta:   14   -31914.9464   -31914.9390   -31914.9657  0.0006 -4.9309
siesta:   15   -31914.9461   -31914.9459   -31914.9727  0.0003 -4.9313
siesta:   16   -31914.9462   -31914.9460   -31914.9730  0.0003 -4.9311
siesta:   17   -31914.9462   -31914.9441   -31914.9711  0.0002 -4.9311
siesta:   18   -31914.9462   -31914.9461   -31914.9731  0.0001 -4.9312

siesta: E_KS(eV) =           -31914.9467

siesta: Atomic forces (eV/Ang):
----------------------------------------
   Tot   -0.014447    0.010237   -0.040943
----------------------------------------
   Max    0.787774
   Res    0.072361    sqrt( Sum f_i^2 / 3N )
----------------------------------------
   Max    0.263006    constrained

Stress-tensor-Voigt (kbar):       -1.78       -0.74       -3.09        1.34        0.49        0.16
(Free)E + p*V (eV/cell)   -31909.9572
Target enthalpy (eV/cell)   -31914.9737

siesta: Stress tensor (static) (eV/Ang**3):
        -0.001112    0.000835    0.000100
         0.000835   -0.000461    0.000307
         0.000100    0.000307   -0.001927

siesta: Pressure (static):          1.86927020  kBar

siesta: Stress tensor (total) (eV/Ang**3):
        -0.001112    0.000835    0.000100
         0.000835   -0.000461    0.000307
         0.000100    0.000307   -0.001927

siesta: Pressure (total):          1.86927020  kBar

cgvc: Finished line minimization   26.  Mean atomic displacement =    0.0126

* Maximum dynamic memory allocated =  1862 MB

siesta:                 ==============================
                            Begin CG move =     71
                        ==============================
k-point displ. along   2 input, could be:     0.00    0.50
 Kpoints in:            4 . Kpoints trimmed:            4

siesta: k-grid: Number of k-points =     4
siesta: k-grid: Cutoff (effective) =    12.500 Ang
siesta: k-grid: Supercell and displacements
siesta: k-grid:    3   0   0      0.000
siesta: k-grid:    0   2   0      0.000
siesta: k-grid:    0   0   1      0.000
Naive supercell factors:     3    2    2

superc: Internal auxiliary supercell:     3 x     2 x     2  =      12
superc: Number of atoms, orbitals, and projectors:   1740  23004  27756

outcell: Unit cell vectors (Ang):
        9.998775   -0.003424    0.000000
       -0.005903   17.218464    0.000000
        0.000000    0.000000   25.000000

outcell: Cell vector modules (Ang)   :    9.998775   17.218465   25.000000
outcell: Cell angles (23,13,12) (deg):     90.0000     90.0000     90.0393
outcell: Cell volume (Ang**3)        :   4304.0880
New_DM. Step:    72
Re-using DM from previous geometry...
Re-using DM without extrapolation (not allowed)
Density Matrix sparsity pattern changed.

InitMesh: MESH =   108 x   180 x   270 =     5248800
InitMesh: Mesh cutoff (required, used) =   300.000   302.036 Ry

siesta: iscf   Eharris(eV)      E_KS(eV)   FreeEng(eV)   dDmax  Ef(eV)
siesta:    1   -31914.9809   -31913.7388   -31913.7657  0.0084 -4.9241
siesta:    2   -31915.5618   -31914.9255   -31914.9482  0.0358 -4.9626
siesta:    3   -31914.9703   -31913.9468   -31913.9749  0.0052 -4.9290
siesta:    4   -31914.9697   -31914.3905   -31914.4172  0.0050 -4.9298
siesta:    5   -31914.9745   -31914.8047   -31914.8345  0.0087 -4.9247
siesta:    6   -31914.9729   -31914.8934   -31914.9182  0.0048 -4.9277
siesta:    7   -31914.9697   -31914.9386   -31914.9643  0.0017 -4.9317
siesta:    8   -31914.9695   -31914.9565   -31914.9834  0.0009 -4.9305
siesta:    9   -31914.9691   -31914.9602   -31914.9869  0.0004 -4.9304
siesta:   10   -31914.9691   -31914.9622   -31914.9892  0.0004 -4.9303
siesta:   11   -31914.9690   -31914.9655   -31914.9925  0.0001 -4.9303
siesta:   12   -31914.9691   -31914.9671   -31914.9943  0.0003 -4.9301
siesta:   13   -31914.9690   -31914.9677   -31914.9948  0.0001 -4.9302

siesta: E_KS(eV) =           -31914.9663

siesta: Atomic forces (eV/Ang):
----------------------------------------
   Tot   -0.003551   -0.009271   -0.060753
----------------------------------------
   Max    0.804209
   Res    0.068957    sqrt( Sum f_i^2 / 3N )
----------------------------------------
   Max    0.226025    constrained

Stress-tensor-Voigt (kbar):        1.15       -0.44       -2.53       -0.60        0.49        0.17
(Free)E + p*V (eV/cell)   -31913.3632
Target enthalpy (eV/cell)   -31914.9934

siesta: Stress tensor (static) (eV/Ang**3):
         0.000715   -0.000375    0.000107
        -0.000376   -0.000275    0.000306
         0.000107    0.000306   -0.001576

siesta: Pressure (static):          0.60685594  kBar

siesta: Stress tensor (total) (eV/Ang**3):
         0.000715   -0.000375    0.000107
        -0.000376   -0.000275    0.000306
         0.000107    0.000306   -0.001576

siesta: Pressure (total):          0.60685594  kBar

* Maximum dynamic memory allocated =  1865 MB

siesta:                 ==============================
                            Begin CG move =     72
                        ==============================
k-point displ. along   2 input, could be:     0.00    0.50
 Kpoints in:            4 . Kpoints trimmed:            4

siesta: k-grid: Number of k-points =     4
siesta: k-grid: Cutoff (effective) =    12.500 Ang
siesta: k-grid: Supercell and displacements
siesta: k-grid:    3   0   0      0.000
siesta: k-grid:    0   2   0      0.000
siesta: k-grid:    0   0   1      0.000
Naive supercell factors:     3    2    2

superc: Internal auxiliary supercell:     3 x     2 x     2  =      12
superc: Number of atoms, orbitals, and projectors:   1740  23004  27756

outcell: Unit cell vectors (Ang):
       10.015653   -0.024523    0.000000
       -0.042239   17.217486    0.000000
        0.000000    0.000000   25.000000

outcell: Cell vector modules (Ang)   :   10.015683   17.217538   25.000000
outcell: Cell angles (23,13,12) (deg):     90.0000     90.0000     90.2808
outcell: Cell volume (Ang**3)        :   4311.0835
New_DM. Step:    73
Re-using DM from previous geometry...
Re-using DM without extrapolation (not allowed)
Density Matrix sparsity pattern changed.

InitMesh: MESH =   108 x   180 x   270 =     5248800
InitMesh: Mesh cutoff (required, used) =   300.000   302.075 Ry

siesta: iscf   Eharris(eV)      E_KS(eV)   FreeEng(eV)   dDmax  Ef(eV)
siesta:    1   -31914.9309   -31912.9730   -31913.0001  0.0138 -4.9143
siesta:    2   -31916.1348   -31914.7996   -31914.8216  0.0732 -5.0388
siesta:    3   -31914.9084   -31913.3316   -31913.3753  0.0084 -4.9224
siesta:    4   -31914.9071   -31913.6440   -31913.6723  0.0048 -4.9200
siesta:    5   -31914.9172   -31914.5810   -31914.6105  0.0161 -4.9129
siesta:    6   -31914.9115   -31914.7574   -31914.7840  0.0068 -4.9243
siesta:    7   -31914.9100   -31914.8509   -31914.8792  0.0027 -4.9214
siesta:    8   -31914.9075   -31914.8794   -31914.9058  0.0007 -4.9223
siesta:    9   -31914.9074   -31914.8877   -31914.9152  0.0004 -4.9214
siesta:   10   -31914.9071   -31914.8914   -31914.9187  0.0003 -4.9211
siesta:   11   -31914.9070   -31914.8984   -31914.9260  0.0002 -4.9211
siesta:   12   -31914.9069   -31914.9020   -31914.9298  0.0001 -4.9211
siesta:   13   -31914.9069   -31914.9042   -31914.9320  0.0001 -4.9210
siesta:   14   -31914.9069   -31914.9071   -31914.9348  0.0001 -4.9210
siesta:   15   -31914.9069   -31914.9076   -31914.9354  0.0001 -4.9210
siesta:   16   -31914.9069   -31914.9091   -31914.9369  0.0001 -4.9209

siesta: E_KS(eV) =           -31914.9093

siesta: Atomic forces (eV/Ang):
----------------------------------------
   Tot    0.030125   -0.019353   -0.010178
----------------------------------------
   Max    0.822426
   Res    0.131183    sqrt( Sum f_i^2 / 3N )
----------------------------------------
   Max    0.537301    constrained

Stress-tensor-Voigt (kbar):        5.78       -0.04       -1.62       -3.76        0.45        0.19
(Free)E + p*V (eV/cell)   -31918.6322
Target enthalpy (eV/cell)   -31914.9371

siesta: Stress tensor (static) (eV/Ang**3):
         0.003608   -0.002349    0.000119
        -0.002348   -0.000027    0.000283
         0.000119    0.000283   -0.001010

siesta: Pressure (static):         -1.37326057  kBar

siesta: Stress tensor (total) (eV/Ang**3):
         0.003608   -0.002349    0.000119
        -0.002348   -0.000027    0.000283
         0.000119    0.000283   -0.001010

siesta: Pressure (total):         -1.37326057  kBar

* Maximum dynamic memory allocated =  1865 MB

siesta:                 ==============================
                            Begin CG move =     73
                        ==============================
k-point displ. along   2 input, could be:     0.00    0.50
 Kpoints in:            4 . Kpoints trimmed:            4

siesta: k-grid: Number of k-points =     4
siesta: k-grid: Cutoff (effective) =    12.500 Ang
siesta: k-grid: Supercell and displacements
siesta: k-grid:    3   0   0      0.000
siesta: k-grid:    0   2   0      0.000
siesta: k-grid:    0   0   1      0.000
Naive supercell factors:     3    2    2

superc: Internal auxiliary supercell:     3 x     2 x     2  =      12
superc: Number of atoms, orbitals, and projectors:   1740  23004  27756

outcell: Unit cell vectors (Ang):
        9.999173   -0.003923    0.000000
       -0.006762   17.218441    0.000000
        0.000000    0.000000   25.000000

outcell: Cell vector modules (Ang)   :    9.999174   17.218442   25.000000
outcell: Cell angles (23,13,12) (deg):     90.0000     90.0000     90.0450
outcell: Cell volume (Ang**3)        :   4304.2537
New_DM. Step:    74
Re-using DM from previous geometry...
Re-using DM without extrapolation (not allowed)
Density Matrix sparsity pattern changed.

InitMesh: MESH =   108 x   180 x   270 =     5248800
InitMesh: Mesh cutoff (required, used) =   300.000   302.036 Ry

siesta: iscf   Eharris(eV)      E_KS(eV)   FreeEng(eV)   dDmax  Ef(eV)
siesta:    1   -31914.9811   -31916.8371   -31916.8648  0.0149 -4.9311
siesta:    2   -31915.8947   -31914.8223   -31914.8549  0.0448 -4.7299
siesta:    3   -31914.9958   -31916.3192   -31916.3379  0.0137 -4.8985
siesta:    4   -31914.9867   -31916.2545   -31916.2739  0.0136 -4.9101
siesta:    5   -31914.9815   -31915.2052   -31915.2253  0.0129 -4.9413
siesta:    6   -31914.9768   -31915.1309   -31915.1555  0.0077 -4.9371
siesta:    7   -31914.9734   -31914.9810   -31915.0071  0.0068 -4.9268
siesta:    8   -31914.9692   -31914.9546   -31914.9801  0.0052 -4.9311
siesta:    9   -31914.9691   -31914.9545   -31914.9818  0.0026 -4.9302
siesta:   10   -31914.9695   -31914.9563   -31914.9834  0.0027 -4.9288
siesta:   11   -31914.9690   -31914.9606   -31914.9873  0.0005 -4.9298
siesta:   12   -31914.9688   -31914.9637   -31914.9907  0.0006 -4.9299
siesta:   13   -31914.9690   -31914.9636   -31914.9908  0.0002 -4.9297
siesta:   14   -31914.9689   -31914.9685   -31914.9956  0.0002 -4.9299
siesta:   15   -31914.9689   -31914.9699   -31914.9971  0.0001 -4.9301

siesta: E_KS(eV) =           -31914.9694

siesta: Atomic forces (eV/Ang):
----------------------------------------
   Tot   -0.009147   -0.009388   -0.061487
----------------------------------------
   Max    0.804041
   Res    0.069607    sqrt( Sum f_i^2 / 3N )
----------------------------------------
   Max    0.230690    constrained

Stress-tensor-Voigt (kbar):        1.24       -0.43       -2.50       -0.67        0.49        0.17
(Free)E + p*V (eV/cell)   -31913.4878
Target enthalpy (eV/cell)   -31914.9965

siesta: Stress tensor (static) (eV/Ang**3):
         0.000776   -0.000421    0.000108
        -0.000421   -0.000266    0.000306
         0.000108    0.000306   -0.001562

siesta: Pressure (static):          0.56159403  kBar

siesta: Stress tensor (total) (eV/Ang**3):
         0.000776   -0.000421    0.000108
        -0.000421   -0.000266    0.000306
         0.000108    0.000306   -0.001562

siesta: Pressure (total):          0.56159403  kBar

cgvc: Finished line minimization   27.  Mean atomic displacement =    0.0130

* Maximum dynamic memory allocated =  1868 MB

siesta:                 ==============================
                            Begin CG move =     74
                        ==============================
k-point displ. along   2 input, could be:     0.00    0.50
 Kpoints in:            4 . Kpoints trimmed:            4

siesta: k-grid: Number of k-points =     4
siesta: k-grid: Cutoff (effective) =    12.500 Ang
siesta: k-grid: Supercell and displacements
siesta: k-grid:    3   0   0      0.000
siesta: k-grid:    0   2   0      0.000
siesta: k-grid:    0   0   1      0.000
Naive supercell factors:     3    2    2

superc: Internal auxiliary supercell:     3 x     2 x     2  =      12
superc: Number of atoms, orbitals, and projectors:   1740  23004  27756

outcell: Unit cell vectors (Ang):
        9.983447   -0.002672    0.000000
       -0.004608   17.233186    0.000000
        0.000000    0.000000   25.000000

outcell: Cell vector modules (Ang)   :    9.983447   17.233187   25.000000
outcell: Cell angles (23,13,12) (deg):     90.0000     90.0000     90.0307
outcell: Cell volume (Ang**3)        :   4301.1647
New_DM. Step:    75
Re-using DM from previous geometry...
Re-using DM without extrapolation (not allowed)
Density Matrix sparsity pattern changed.

InitMesh: MESH =   108 x   180 x   270 =     5248800
InitMesh: Mesh cutoff (required, used) =   300.000   301.520 Ry

siesta: iscf   Eharris(eV)      E_KS(eV)   FreeEng(eV)   dDmax  Ef(eV)
siesta:    1   -31914.9833   -31915.4708   -31915.4980  0.0131 -4.9314
siesta:    2   -31915.3371   -31914.9257   -31914.9596  0.0637 -4.8479
siesta:    3   -31914.9936   -31915.3451   -31915.3525  0.0176 -4.9205
siesta:    4   -31914.9923   -31915.3246   -31915.3467  0.0164 -4.9224
siesta:    5   -31914.9873   -31915.0628   -31915.0852  0.0019 -4.9351
siesta:    6   -31914.9854   -31914.9912   -31915.0179  0.0071 -4.9284
siesta:    7   -31914.9847   -31914.9784   -31915.0049  0.0019 -4.9310
siesta:    8   -31914.9818   -31914.9769   -31915.0035  0.0022 -4.9329
siesta:    9   -31914.9821   -31914.9765   -31915.0052  0.0011 -4.9317
siesta:   10   -31914.9822   -31914.9768   -31915.0051  0.0020 -4.9313
siesta:   11   -31914.9820   -31914.9782   -31915.0064  0.0012 -4.9319
siesta:   12   -31914.9817   -31914.9800   -31915.0083  0.0002 -4.9319
siesta:   13   -31914.9818   -31914.9791   -31915.0078  0.0002 -4.9319
siesta:   14   -31914.9817   -31914.9797   -31915.0082  0.0001 -4.9320
siesta:   15   -31914.9817   -31914.9814   -31915.0100  0.0002 -4.9320
siesta:   16   -31914.9817   -31914.9820   -31915.0106  0.0001 -4.9320
siesta:   17   -31914.9817   -31914.9816   -31915.0102  0.0001 -4.9320

siesta: E_KS(eV) =           -31914.9815

siesta: Atomic forces (eV/Ang):
----------------------------------------
   Tot    0.081858    0.020964   -0.031686
----------------------------------------
   Max    0.835837
   Res    0.066912    sqrt( Sum f_i^2 / 3N )
----------------------------------------
   Max    0.230439    constrained

Stress-tensor-Voigt (kbar):       -1.71        1.01       -2.11       -0.43        0.47        0.16
(Free)E + p*V (eV/cell)   -31912.4950
Target enthalpy (eV/cell)   -31915.0101

siesta: Stress tensor (static) (eV/Ang**3):
        -0.001070   -0.000267    0.000101
        -0.000267    0.000632    0.000294
         0.000101    0.000294   -0.001316

siesta: Pressure (static):          0.93687900  kBar

siesta: Stress tensor (total) (eV/Ang**3):
        -0.001070   -0.000267    0.000101
        -0.000267    0.000632    0.000294
         0.000101    0.000294   -0.001316

siesta: Pressure (total):          0.93687900  kBar

* Maximum dynamic memory allocated =  1870 MB

siesta:                 ==============================
                            Begin CG move =     75
                        ==============================
k-point displ. along   2 input, could be:     0.00    0.50
 Kpoints in:            4 . Kpoints trimmed:            4

siesta: k-grid: Number of k-points =     4
siesta: k-grid: Cutoff (effective) =    12.500 Ang
siesta: k-grid: Supercell and displacements
siesta: k-grid:    3   0   0      0.000
siesta: k-grid:    0   2   0      0.000
siesta: k-grid:    0   0   1      0.000
Naive supercell factors:     3    2    2

superc: Internal auxiliary supercell:     3 x     2 x     2  =      12
superc: Number of atoms, orbitals, and projectors:   1740  23004  27756

outcell: Unit cell vectors (Ang):
        9.987189   -0.002970    0.000000
       -0.005120   17.229677    0.000000
        0.000000    0.000000   25.000000

outcell: Cell vector modules (Ang)   :    9.987190   17.229678   25.000000
outcell: Cell angles (23,13,12) (deg):     90.0000     90.0000     90.0341
outcell: Cell volume (Ang**3)        :   4301.9008
New_DM. Step:    76
Re-using DM from previous geometry...
Re-using DM without extrapolation (not allowed)
Density Matrix sparsity pattern changed.

InitMesh: MESH =   108 x   180 x   270 =     5248800
InitMesh: Mesh cutoff (required, used) =   300.000   301.642 Ry

siesta: iscf   Eharris(eV)      E_KS(eV)   FreeEng(eV)   dDmax  Ef(eV)
siesta:    1   -31914.9851   -31914.8642   -31914.8928  0.0078 -4.9315
siesta:    2   -31914.9978   -31914.9822   -31915.0093  0.0104 -4.9236
siesta:    3   -31914.9837   -31914.8834   -31914.9249  0.0065 -4.9311
siesta:    4   -31914.9830   -31914.9140   -31914.9421  0.0045 -4.9318
siesta:    5   -31914.9831   -31914.9714   -31915.0003  0.0017 -4.9326
siesta:    6   -31914.9837   -31914.9798   -31915.0088  0.0003 -4.9317
