
     Program PWSCF v.5.0.2 (svn rev. 9656) starts on 10Nov2019 at 16: 9:44 

     This program is part of the open-source Quantum ESPRESSO suite
     for quantum simulation of materials; please cite
         "P. Giannozzi et al., J. Phys.:Condens. Matter 21 395502 (2009);
          URL http://www.quantum-espresso.org", 
     in publications or presentations arising from this work. More details at
     http://www.quantum-espresso.org/quote.php

     Parallel version (MPI), running on     1 processors

     Current dimensions of program PWSCF are:
     Max number of different atomic species (ntypx) = 10
     Max number of k-points (npk) =  40000
     Max angular momentum in pseudopotentials (lmaxx) =  3
     Waiting for input...
     Reading input from standard input
Warning: card   &CELL ignored
Warning: card  / ignored

     IMPORTANT: XC functional enforced from input :
     Exchange-correlation      = VDW-DF ( 1 4 4 0 1)
     EXX-fraction              =        0.00
     Any further DFT definition will be discarded
     Please, verify this is what you really want


     Subspace diagonalization in iterative solution of the eigenvalue problem:
     a serial algorithm will be used


     G-vector sticks info
     --------------------
     sticks:   dense  smooth     PW     G-vecs:    dense   smooth      PW
     Sum        7111    3711   1025              1237307   464101   68291



     bravais-lattice index     =            0
     lattice parameter (alat)  =       1.8897  a.u.
     unit-cell volume          =   14101.0269 (a.u.)^3
     number of atoms/cell      =           72
     number of atomic types    =            3
     number of electrons       =       428.00
     number of Kohn-Sham states=          257
     kinetic-energy cutoff     =      39.0000  Ry
     charge density cutoff     =     300.0000  Ry
     convergence threshold     =      1.0E-06
     mixing beta               =       0.3000
     number of iterations used =            8  plain     mixing
     Exchange-correlation      = VDW-DF ( 1 4 4 0 1)
     EXX-fraction              =        0.00
     nstep                     =           99


     celldm(1)=   1.889726  celldm(2)=   0.000000  celldm(3)=   0.000000
     celldm(4)=   0.000000  celldm(5)=   0.000000  celldm(6)=   0.000000

     crystal axes: (cart. coord. in units of alat)
               a(1) = (   4.947600   0.000000   0.000000 )  
               a(2) = (   0.000000  16.893500   0.000000 )  
               a(3) = (   0.000000   0.000000  25.000000 )  

     reciprocal axes: (cart. coord. in units 2 pi/alat)
               b(1) = (  0.202118  0.000000  0.000000 )  
               b(2) = (  0.000000  0.059194  0.000000 )  
               b(3) = (  0.000000  0.000000  0.040000 )  


     PseudoPot. # 1 for Ti read from file:
     /home/mxm2/Documents/internal_and_full_opt/Lipatov_monolayer_25_1x5x1_graphene_2x4x1_heterostructure_internal_opt/Ti.pbe-spn-rrkjus_psl.0.3.1.UPF
     MD5 check sum: 3a8d0781337a465ed61b0a8b42a1557b
     Pseudo is Ultrasoft + core correction, Zval = 12.0
     Generated using "atomic" code by A. Dal Corso  v.5.0.2 svn rev. 10551
     Using radial grid of 1177 points,  6 beta functions with: 
                l(1) =   0
                l(2) =   0
                l(3) =   1
                l(4) =   1
                l(5) =   2
                l(6) =   2
     Q(r) pseudized with 0 coefficients 


     PseudoPot. # 2 for  S read from file:
     /home/mxm2/Documents/internal_and_full_opt/Lipatov_monolayer_25_1x5x1_graphene_2x4x1_heterostructure_internal_opt/S.pbe-n-rrkjus_psl.0.1.UPF
     MD5 check sum: 884d5d7fb9162c2ff34d476565c2f60b
     Pseudo is Ultrasoft + core correction, Zval =  6.0
     Generated using "atomic" code by A. Dal Corso  v.5.0.99 svn rev. 10869
     Using radial grid of 1151 points,  4 beta functions with: 
                l(1) =   0
                l(2) =   0
                l(3) =   1
                l(4) =   1
     Q(r) pseudized with 0 coefficients 


     PseudoPot. # 3 for  C read from file:
     /home/mxm2/Documents/internal_and_full_opt/Lipatov_monolayer_25_1x5x1_graphene_2x4x1_heterostructure_internal_opt/C.pbe-n-rrkjus_psl.0.1.UPF
     MD5 check sum: b524aa6f26bea011a39bb5addbeca40d
     Pseudo is Ultrasoft + core correction, Zval =  4.0
     Generated using "atomic" code by A. Dal Corso  v.5.0.99 svn rev. 10869
     Using radial grid of 1073 points,  4 beta functions with: 
                l(1) =   0
                l(2) =   0
                l(3) =   1
                l(4) =   1
     Q(r) pseudized with 0 coefficients 


     vdW kernel table read from file vdW_kernel_table
     MD5 check sum: 48e77a2e26edf626eeb0eaa751ad5cac

     atomic species   valence    mass     pseudopotential
        Ti            12.00    47.86700     Ti( 1.00)
        S              6.00    32.06600      S( 1.00)
        C              4.00    12.01070      C( 1.00)

      2 Sym. Ops. (no inversion) found ( 1 have fractional translation)



   Cartesian axes

     site n.     atom                  positions (alat units)
         1           Ti  tau(   1) = (   1.6250293   0.8446750   2.6185500  )
         2           Ti  tau(   2) = (   1.6250293   4.2233750   2.6185500  )
         3           Ti  tau(   3) = (   1.6250293   7.6020750   2.6185500  )
         4           Ti  tau(   4) = (   1.6250293  10.9807750   2.6185500  )
         5           Ti  tau(   5) = (   1.6250293  14.3594750   2.6185500  )
         6           Ti  tau(   6) = (   4.0809091   2.5340250   0.0000000  )
         7           Ti  tau(   7) = (   4.0809091   5.9127250   0.0000000  )
         8           Ti  tau(   8) = (   4.0809091   9.2914250   0.0000000  )
         9           Ti  tau(   9) = (   4.0809091  12.6701250   0.0000000  )
        10           Ti  tau(  10) = (   4.0809091  16.0488250   0.0000000  )
        11           S   tau(  11) = (   3.0372178   0.8446750  23.5034250  )
        12           S   tau(  12) = (   3.0372178   4.2233750  23.5034250  )
        13           S   tau(  13) = (   3.0372178   7.6020750  23.5034250  )
        14           S   tau(  14) = (   3.0372178  10.9807750  23.5034250  )
        15           S   tau(  15) = (   3.0372178  14.3594750  23.5034250  )
        16           S   tau(  16) = (   2.6687206   2.5340250   4.1151250  )
        17           S   tau(  17) = (   2.6687206   5.9127250   4.1151250  )
        18           S   tau(  18) = (   2.6687206   9.2914250   4.1151250  )
        19           S   tau(  19) = (   2.6687206  12.6701250   4.1151250  )
        20           S   tau(  20) = (   2.6687206  16.0488250   4.1151250  )
        21           S   tau(  21) = (   4.0802362   0.8446750   1.7549500  )
        22           S   tau(  22) = (   4.0802362   4.2233750   1.7549500  )
        23           S   tau(  23) = (   4.0802362   7.6020750   1.7549500  )
        24           S   tau(  24) = (   4.0802362  10.9807750   1.7549500  )
        25           S   tau(  25) = (   4.0802362  14.3594750   1.7549500  )
        26           S   tau(  26) = (   1.6256973   2.5340250   0.8636000  )
        27           S   tau(  27) = (   1.6256973   5.9127250   0.8636000  )
        28           S   tau(  28) = (   1.6256973   9.2914250   0.8636000  )
        29           S   tau(  29) = (   1.6256973  12.6701250   0.8636000  )
        30           S   tau(  30) = (   1.6256973  16.0488250   0.8636000  )
        31           S   tau(  31) = (   0.2056915   0.8446750  23.4739500  )
        32           S   tau(  32) = (   0.2056915   4.2233750  23.4739500  )
        33           S   tau(  33) = (   0.2056915   7.6020750  23.4739500  )
        34           S   tau(  34) = (   0.2056915  10.9807750  23.4739500  )
        35           S   tau(  35) = (   0.2056915  14.3594750  23.4739500  )
        36           S   tau(  36) = (   0.5526469   2.5340250   4.1446000  )
        37           S   tau(  37) = (   0.5526469   5.9127250   4.1446000  )
        38           S   tau(  38) = (   0.5526469   9.2914250   4.1446000  )
        39           S   tau(  39) = (   0.5526469  12.6701250   4.1446000  )
        40           S   tau(  40) = (   0.5526469  16.0488250   4.1446000  )
        41           C   tau(  41) = (   1.8553500   3.5198452   7.3211400  )
        42           C   tau(  42) = (   1.8553500   7.7432202   7.3211400  )
        43           C   tau(  43) = (   1.8553500  11.9665952   7.3211400  )
        44           C   tau(  44) = (   1.8553500  16.1899702   7.3211400  )
        45           C   tau(  45) = (   4.3291500   3.5198452   7.3211400  )
        46           C   tau(  46) = (   4.3291500   7.7432202   7.3211400  )
        47           C   tau(  47) = (   4.3291500  11.9665952   7.3211400  )
        48           C   tau(  48) = (   4.3291500  16.1899702   7.3211400  )
        49           C   tau(  49) = (   1.8553500   0.7035298   7.3211400  )
        50           C   tau(  50) = (   1.8553500   4.9269048   7.3211400  )
        51           C   tau(  51) = (   1.8553500   9.1502798   7.3211400  )
        52           C   tau(  52) = (   1.8553500  13.3736548   7.3211400  )
        53           C   tau(  53) = (   4.3291500   0.7035298   7.3211400  )
        54           C   tau(  54) = (   4.3291500   4.9269048   7.3211400  )
        55           C   tau(  55) = (   4.3291500   9.1502798   7.3211400  )
        56           C   tau(  56) = (   4.3291500  13.3736548   7.3211400  )
        57           C   tau(  57) = (   0.6184500   1.4081577   7.3211400  )
        58           C   tau(  58) = (   0.6184500   5.6315327   7.3211400  )
        59           C   tau(  59) = (   0.6184500   9.8549077   7.3211400  )
        60           C   tau(  60) = (   0.6184500  14.0782827   7.3211400  )
        61           C   tau(  61) = (   3.0922500   1.4081577   7.3211400  )
        62           C   tau(  62) = (   3.0922500   5.6315327   7.3211400  )
        63           C   tau(  63) = (   3.0922500   9.8549077   7.3211400  )
        64           C   tau(  64) = (   3.0922500  14.0782827   7.3211400  )
        65           C   tau(  65) = (   0.6184500   2.8152173   7.3211400  )
        66           C   tau(  66) = (   0.6184500   7.0385923   7.3211400  )
        67           C   tau(  67) = (   0.6184500  11.2619673   7.3211400  )
        68           C   tau(  68) = (   0.6184500  15.4853423   7.3211400  )
        69           C   tau(  69) = (   3.0922500   2.8152173   7.3211400  )
        70           C   tau(  70) = (   3.0922500   7.0385923   7.3211400  )
        71           C   tau(  71) = (   3.0922500  11.2619673   7.3211400  )
        72           C   tau(  72) = (   3.0922500  15.4853423   7.3211400  )

     number of k points=     8  gaussian smearing, width (Ry)=  0.0200
                       cart. coord. in units 2pi/alat
        k(    1) = (   0.0000000   0.0000000   0.0000000), wk =   0.1666667
        k(    2) = (   0.0000000  -0.0295972   0.0000000), wk =   0.1666667
        k(    3) = (   0.0336864   0.0000000   0.0000000), wk =   0.3333333
        k(    4) = (   0.0336864  -0.0295972   0.0000000), wk =   0.3333333
        k(    5) = (   0.0673727   0.0000000   0.0000000), wk =   0.3333333
        k(    6) = (   0.0673727  -0.0295972   0.0000000), wk =   0.3333333
        k(    7) = (  -0.1010591   0.0000000   0.0000000), wk =   0.1666667
        k(    8) = (  -0.1010591  -0.0295972   0.0000000), wk =   0.1666667

     Dense  grid:  1237307 G-vectors     FFT dimensions: (  54, 180, 270)

     Smooth grid:   464101 G-vectors     FFT dimensions: (  40, 128, 192)

     Largest allocated arrays     est. size (Mb)     dimensions
        Kohn-Sham Wavefunctions       227.69 Mb     (  58063,  257)
        NL pseudopotentials           598.92 Mb     (  58063,  676)
        Each V/rho on FFT grid         40.05 Mb     (2624400)
        Each G-vector array             9.44 Mb     (1237307)
        G-vector shells                 1.23 Mb     ( 161428)
     Largest temporary arrays     est. size (Mb)     dimensions
        Auxiliary wavefunctions       910.78 Mb     (  58063, 1028)
        Each subspace H/S matrix       16.13 Mb     (1028,1028)
        Each <psi_i|beta_j> matrix      2.65 Mb     (    676,  257)
        Arrays for rho mixing         320.36 Mb     (2624400,   8)

     Check: negative/imaginary core charge=   -0.000006    0.000000

     Initial potential from superposition of free atoms
     Check: negative starting charge=   -0.024324

     starting charge  427.98291, renormalised to  428.00000

     negative rho (up, down):  0.243E-01 0.000E+00


     ************************************************************************
     *
     * You are using vdW-DF for exchange-correlation in this calculation.
     * Please cite the following three references that made this development
     * possible:
     *
     *   M. Dion, H. Rydberg, E. Schroder, D. C. Langreth, and
     *   B. I. Lundqvist, Phys. Rev. Lett. 92, 246401 (2004).
     *
     *   T. Thonhauser, V. R. Cooper, S. Li, A. Puzder, P. Hyldgaard, and
     *   D. C. Langreth, Phys. Rev. B 76, 125112 (2007).
     *
     *   G. Roman-Perez and J. M. Soler, Phys. Rev. Lett. 103, 096102 (2009).
     *
     *
     * If you are using vdW-DF2, please also cite:
     *
     *   K. Lee, E. D. Murray, L. Kong, B. I. Lundqvist, and
     *   D. C. Langreth, Phys. Rev. B 82, 081101(R) (2010).
     *
     *
     * If you are calculating the stress with vdW-DF, please also cite:
     *
     *   R. Sabatini, E. Kucukbenli, B. Kolb, T. Thonhauser, and
     *   S. de Gironcoli, J. Phys.: Condens. Matter 24, 424209 (2012).
     *
     ************************************************************************

     Carrying out vdW-DF run using the following parameters:

     Nqs =      20    Nr_points =    1024   r_max =   100.000
     q_mesh =
               0.00001000     0.04494208     0.09755937     0.15916263
               0.23128650     0.31572767     0.41458969     0.53033537
               0.66584808     0.82450364     1.01025438     1.22772762
               1.48234092     1.78043706     2.12944203     2.53805004
               3.01644009     3.57652955     4.23227104     5.00000000

     Gradients computed in reciprocal space

     ************************************************************************


     Starting wfc are  378 randomized atomic wfcs

     total cpu time spent up to now is      551.8 secs

     per-process dynamical memory:  1351.6 Mb

     Self-consistent Calculation

     iteration #  1     ecut=    39.00 Ry     beta=0.30
     Davidson diagonalization with overlap
     ethr =  1.00E-02,  avg # of iterations =  4.0

     negative rho (up, down):  0.236E-01 0.000E+00

     total cpu time spent up to now is     3122.6 secs

     total energy              =   -2322.18827105 Ry
     Harris-Foulkes estimate   =   -2324.50622356 Ry
     estimated scf accuracy    <       6.39677687 Ry

     iteration #  2     ecut=    39.00 Ry     beta=0.30
     Davidson diagonalization with overlap
     ethr =  1.49E-03,  avg # of iterations =  6.4

     negative rho (up, down):  0.252E-01 0.000E+00

     total cpu time spent up to now is     4950.4 secs

     total energy              =   -2321.92428350 Ry
     Harris-Foulkes estimate   =   -2323.52963471 Ry
     estimated scf accuracy    <       6.85407491 Ry

     iteration #  3     ecut=    39.00 Ry     beta=0.30
     Davidson diagonalization with overlap
     ethr =  1.49E-03,  avg # of iterations =  4.0

     negative rho (up, down):  0.259E-01 0.000E+00

     total cpu time spent up to now is     6543.3 secs

     total energy              =   -2321.90040953 Ry
     Harris-Foulkes estimate   =   -2323.59175177 Ry
     estimated scf accuracy    <      12.10954827 Ry

     iteration #  4     ecut=    39.00 Ry     beta=0.30
     Davidson diagonalization with overlap
     ethr =  1.49E-03,  avg # of iterations =  2.1

     negative rho (up, down):  0.270E-01 0.000E+00

     total cpu time spent up to now is     8090.5 secs

     total energy              =   -2322.72489446 Ry
     Harris-Foulkes estimate   =   -2323.02061014 Ry
     estimated scf accuracy    <       1.07930328 Ry

     iteration #  5     ecut=    39.00 Ry     beta=0.30
     Davidson diagonalization with overlap
     ethr =  2.52E-04,  avg # of iterations =  8.5

     negative rho (up, down):  0.284E-01 0.000E+00

     total cpu time spent up to now is    10252.9 secs

     total energy              =   -2322.96738682 Ry
     Harris-Foulkes estimate   =   -2323.02439196 Ry
     estimated scf accuracy    <       0.33078581 Ry

     iteration #  6     ecut=    39.00 Ry     beta=0.30
     Davidson diagonalization with overlap
     ethr =  7.73E-05,  avg # of iterations = 10.4

     negative rho (up, down):  0.294E-01 0.000E+00

     total cpu time spent up to now is    12177.3 secs

     total energy              =   -2323.01663634 Ry
     Harris-Foulkes estimate   =   -2323.02796991 Ry
     estimated scf accuracy    <       0.09327173 Ry

     iteration #  7     ecut=    39.00 Ry     beta=0.30
     Davidson diagonalization with overlap
     c_bands:  2 eigenvalues not converged
     c_bands:  1 eigenvalues not converged
     ethr =  2.18E-05,  avg # of iterations = 13.6

     negative rho (up, down):  0.303E-01 0.000E+00

     total cpu time spent up to now is    14331.4 secs

     total energy              =   -2323.02932701 Ry
     Harris-Foulkes estimate   =   -2323.03204458 Ry
     estimated scf accuracy    <       0.02558043 Ry

     iteration #  8     ecut=    39.00 Ry     beta=0.30
     Davidson diagonalization with overlap
     c_bands:  1 eigenvalues not converged
     ethr =  5.98E-06,  avg # of iterations = 12.6

     negative rho (up, down):  0.312E-01 0.000E+00

     total cpu time spent up to now is    16610.5 secs

     total energy              =   -2323.03464061 Ry
     Harris-Foulkes estimate   =   -2323.03613620 Ry
     estimated scf accuracy    <       0.01547497 Ry

     iteration #  9     ecut=    39.00 Ry     beta=0.30
     Davidson diagonalization with overlap
     c_bands:  1 eigenvalues not converged
     ethr =  3.62E-06,  avg # of iterations = 11.5

     negative rho (up, down):  0.316E-01 0.000E+00

     total cpu time spent up to now is    18254.9 secs

     total energy              =   -2323.03579884 Ry
     Harris-Foulkes estimate   =   -2323.03640826 Ry
     estimated scf accuracy    <       0.00357880 Ry

     iteration # 10     ecut=    39.00 Ry     beta=0.30
     Davidson diagonalization with overlap
     c_bands:  1 eigenvalues not converged
     ethr =  8.36E-07,  avg # of iterations = 10.4

     negative rho (up, down):  0.320E-01 0.000E+00

     total cpu time spent up to now is    20436.8 secs

     total energy              =   -2323.03643901 Ry
     Harris-Foulkes estimate   =   -2323.03685682 Ry
     estimated scf accuracy    <       0.00324152 Ry

     iteration # 11     ecut=    39.00 Ry     beta=0.30
     Davidson diagonalization with overlap
     ethr =  7.57E-07,  avg # of iterations =  3.0

     negative rho (up, down):  0.323E-01 0.000E+00

     total cpu time spent up to now is    21988.5 secs

     total energy              =   -2323.03673005 Ry
     Harris-Foulkes estimate   =   -2323.03672705 Ry
     estimated scf accuracy    <       0.00031736 Ry

     iteration # 12     ecut=    39.00 Ry     beta=0.30
     Davidson diagonalization with overlap
     ethr =  7.41E-08,  avg # of iterations =  9.1

     negative rho (up, down):  0.325E-01 0.000E+00

     total cpu time spent up to now is    24477.4 secs

     total energy              =   -2323.03681672 Ry
     Harris-Foulkes estimate   =   -2323.03684218 Ry
     estimated scf accuracy    <       0.00016966 Ry

     iteration # 13     ecut=    39.00 Ry     beta=0.30
     Davidson diagonalization with overlap
     ethr =  3.96E-08,  avg # of iterations =  2.2

     negative rho (up, down):  0.326E-01 0.000E+00

     total cpu time spent up to now is    26041.4 secs

     total energy              =   -2323.03682964 Ry
     Harris-Foulkes estimate   =   -2323.03684002 Ry
     estimated scf accuracy    <       0.00007964 Ry

     iteration # 14     ecut=    39.00 Ry     beta=0.30
     Davidson diagonalization with overlap
     ethr =  1.86E-08,  avg # of iterations =  3.2

     negative rho (up, down):  0.327E-01 0.000E+00

     total cpu time spent up to now is    27714.2 secs

     total energy              =   -2323.03684472 Ry
     Harris-Foulkes estimate   =   -2323.03684893 Ry
     estimated scf accuracy    <       0.00004326 Ry

     iteration # 15     ecut=    39.00 Ry     beta=0.30
     Davidson diagonalization with overlap
     ethr =  1.01E-08,  avg # of iterations =  2.1

     negative rho (up, down):  0.328E-01 0.000E+00

     total cpu time spent up to now is    29254.0 secs

     total energy              =   -2323.03684819 Ry
     Harris-Foulkes estimate   =   -2323.03684875 Ry
     estimated scf accuracy    <       0.00000947 Ry

     iteration # 16     ecut=    39.00 Ry     beta=0.30
     Davidson diagonalization with overlap
     ethr =  2.21E-09,  avg # of iterations =  4.4

     negative rho (up, down):  0.328E-01 0.000E+00

     total cpu time spent up to now is    32014.7 secs

     total energy              =   -2323.03685295 Ry
     Harris-Foulkes estimate   =   -2323.03685251 Ry
     estimated scf accuracy    <       0.00000226 Ry

     iteration # 17     ecut=    39.00 Ry     beta=0.30
     Davidson diagonalization with overlap
     ethr =  5.27E-10,  avg # of iterations =  2.6

     negative rho (up, down):  0.330E-01 0.000E+00

     total cpu time spent up to now is    33650.0 secs

     End of self-consistent calculation

          k = 0.0000 0.0000 0.0000 ( 58029 PWs)   bands (ev):

   -56.3583 -56.3548 -56.3461 -56.3451 -56.3381 -56.3176 -56.3147 -56.3147
   -56.3113 -56.3101 -32.7160 -32.7064 -32.6798 -32.6791 -32.6779 -32.6702
   -32.6668 -32.6580 -32.6543 -32.6531 -32.6512 -32.6411 -32.6345 -32.6344
   -32.6254 -32.6242 -32.6195 -32.6192 -32.6158 -32.5840 -32.4780 -32.4726
   -32.4646 -32.4624 -32.4541 -32.4313 -32.4273 -32.4273 -32.4226 -32.4211
   -18.0776 -17.7037 -17.7036 -16.5933 -16.5913 -14.7819 -14.7819 -14.4466
   -14.2681 -14.2451 -14.2422 -14.1057 -14.1056 -13.9096 -13.9095 -13.8726
   -13.8680 -13.8105 -13.8090 -13.5455 -13.5453 -13.5412 -13.5412 -12.9341
   -12.9299 -12.6982 -12.2953 -12.1036 -12.1029 -11.8246 -11.7704 -11.7695
   -11.5339 -11.5336 -10.8669 -10.8665 -10.6826 -10.6536 -10.6534 -10.5549
   -10.5548 -10.5522 -10.5520  -9.6701  -9.5621  -9.5204  -9.5154  -9.4106
    -9.4103  -9.2380  -9.2369  -9.2152  -9.2151  -9.1385  -9.1370  -9.0183
    -9.0160  -7.5601  -7.5596  -6.2899  -5.9895  -5.9895  -5.9894  -5.9887
    -5.9489  -5.9479  -5.8647  -5.8641  -5.4681  -5.2625  -5.2605  -5.1961
    -5.1839  -5.1832  -5.1804  -5.1264  -5.1259  -4.9750  -4.9743  -4.9131
    -4.9108  -4.8233  -4.8233  -4.6176  -4.6175  -4.4294  -4.3752  -4.3730
    -4.2042  -4.2039  -4.1078  -4.1050  -4.0836  -3.7881  -3.7873  -3.7586
    -3.7584  -3.6085  -3.6062  -3.2923  -3.2919  -3.2717  -3.2698  -3.1489
    -3.1428  -3.1399  -3.0043  -3.0042  -2.8297  -2.8274  -2.7077  -2.6937
    -2.4379  -2.4375  -2.4301  -2.4272  -2.2858  -2.2075  -2.2007  -2.1997
    -2.0611  -2.0593  -2.0237  -2.0182  -1.8482  -1.8479  -1.7088  -1.7002
    -1.6821  -1.6699  -1.6450  -1.5107  -1.4057  -1.4011  -1.3201  -1.3200
    -1.3055  -1.2282  -1.2230  -1.2209  -1.1666  -1.1602  -1.1409  -1.1393
    -1.1224  -1.1174  -1.0172  -0.9356  -0.7836  -0.5450  -0.5405  -0.5402
    -0.5379  -0.3844  -0.3736  -0.3130  -0.2471  -0.2468  -0.2343  -0.2007
    -0.1671  -0.1518  -0.1171  -0.1148  -0.0810   0.0285   0.0292   0.1139
     0.3227   0.3229   0.3737   0.5204   0.7699   0.9215   1.3442   1.7476
     2.0746   2.0758   2.4307   2.4337   2.7701   2.7745   2.8817   2.8847
     2.9457   2.9592   3.0599   3.0639   3.0728   3.0817   3.0865   3.1100
     3.1421   3.1977   3.1997   3.2106   3.2539   3.3117   3.3120   3.3849
     3.3861   3.4809   3.5337   3.5343   3.5791   3.5932   3.6633   3.6886
     3.7142   3.7221   3.7364   3.7500   3.7744   3.7861   3.7969   3.7971
     3.8063

          k = 0.0000-0.0296 0.0000 ( 58052 PWs)   bands (ev):

   -56.3583 -56.3548 -56.3460 -56.3452 -56.3381 -56.3174 -56.3159 -56.3129
   -56.3123 -56.3098 -32.7218 -32.6883 -32.6858 -32.6844 -32.6786 -32.6720
   -32.6640 -32.6627 -32.6531 -32.6504 -32.6493 -32.6403 -32.6390 -32.6309
   -32.6291 -32.6285 -32.6230 -32.6216 -32.5946 -32.5933 -32.4780 -32.4727
   -32.4642 -32.4627 -32.4541 -32.4310 -32.4291 -32.4247 -32.4241 -32.4207
   -17.9893 -17.9784 -17.2390 -17.2385 -15.7748 -15.7649 -14.3911 -14.3905
   -14.2251 -14.2239 -14.0668 -14.0638 -13.9482 -13.9477 -13.8551 -13.7949
   -13.7891 -13.7828 -13.7794 -13.7550 -13.6427 -13.6383 -13.1881 -13.1837
   -13.1804 -13.1775 -12.2492 -12.2459 -11.8616 -11.8612 -11.3695 -11.3663
   -11.3648 -11.3594 -11.1729 -11.1690 -10.7450 -10.7419 -10.6972 -10.6965
   -10.6711 -10.6676  -9.6441  -9.6371  -9.6311  -9.6240  -9.6219  -9.6127
    -9.5220  -9.5205  -9.3628  -9.3601  -9.2646  -9.2643  -9.1862  -9.0871
    -7.5927  -7.5919  -6.9379  -6.9371  -6.9320  -6.9317  -6.1874  -6.1763
    -5.4104  -5.4089  -5.4007  -5.3921  -5.2603  -5.2591  -5.2498  -5.2495
    -5.1895  -5.1878  -5.1629  -5.1614  -5.1067  -5.0958  -4.9947  -4.9942
    -4.9791  -4.8610  -4.6540  -4.4743  -4.3761  -4.3757  -4.3730  -4.3724
    -4.3401  -4.3384  -4.0035  -3.9998  -3.9926  -3.9919  -3.9726  -3.7418
    -3.7399  -3.7002  -3.6970  -3.5217  -3.3799  -3.3616  -3.3614  -3.1694
    -3.1643  -3.1476  -3.1116  -3.1101  -2.9796  -2.9787  -2.5001  -2.4984
    -2.3674  -2.3665  -2.2161  -2.2148  -2.2093  -2.1901  -2.1208  -2.0776
    -2.0766  -2.0471  -2.0423  -2.0298  -1.9181  -1.9072  -1.7434  -1.7385
    -1.6133  -1.5972  -1.5950  -1.4847  -1.4781  -1.4453  -1.3046  -1.2980
    -1.2897  -1.2736  -1.2720  -1.2651  -1.2646  -1.2623  -1.0652  -1.0527
    -1.0366  -1.0154  -0.9635  -0.9621  -0.8515  -0.8499  -0.6899  -0.6883
    -0.5322  -0.5253  -0.3113  -0.3100  -0.2260  -0.2098  -0.2031  -0.1290
    -0.0713  -0.0705  -0.0583  -0.0255   0.0749   0.0838   0.0933   0.0970
     0.2405   0.2423   0.3217   0.3220   0.7856   0.7903   1.6121   1.6155
     2.0535   2.0557   2.4836   2.4839   2.7300   2.7301   2.9191   2.9321
     2.9536   2.9599   3.0000   3.0008   3.1196   3.1246   3.1319   3.1324
     3.1705   3.1929   3.3265   3.3329   3.3404   3.3673   3.4116   3.4130
     3.4347   3.4387   3.4624   3.4661   3.5034   3.5045   3.5333   3.5839
     3.6412   3.6429   3.7131   3.8246   3.8277   3.8560   3.8785   3.8837
     3.9966

          k = 0.0337 0.0000 0.0000 ( 58063 PWs)   bands (ev):

   -56.3583 -56.3548 -56.3461 -56.3451 -56.3381 -56.3176 -56.3147 -56.3147
   -56.3113 -56.3101 -32.7159 -32.7063 -32.6794 -32.6787 -32.6776 -32.6700
   -32.6665 -32.6582 -32.6541 -32.6529 -32.6513 -32.6416 -32.6350 -32.6349
   -32.6255 -32.6242 -32.6196 -32.6193 -32.6158 -32.5840 -32.4782 -32.4730
   -32.4648 -32.4628 -32.4544 -32.4318 -32.4279 -32.4279 -32.4231 -32.4216
   -17.9564 -17.5830 -17.5829 -16.4746 -16.4726 -15.1132 -14.7574 -14.7574
   -14.6681 -14.6681 -14.3588 -14.1919 -14.1634 -14.1604 -14.0312 -14.0311
   -13.8460 -13.8451 -13.7419 -13.7405 -13.7261 -13.7224 -12.5946 -12.5155
   -12.5112 -12.5021 -12.2197 -12.0285 -12.0279 -11.7261 -11.4730 -11.4727
   -11.3673 -11.3673 -10.9261 -10.8866 -10.8862 -10.8278 -10.8277 -10.7891
   -10.7888 -10.1314  -9.9941  -9.8442  -9.8432  -9.8311  -9.7192  -9.7189
    -9.6002  -9.5991  -9.4952  -9.4937  -9.2023  -9.2022  -9.1488  -9.1487
    -8.5731  -7.7345  -6.7684  -6.7683  -6.3541  -6.1318  -5.9916  -5.9905
    -5.7001  -5.6998  -5.6982  -5.3161  -5.3161  -5.1531  -5.1525  -5.0135
    -5.0130  -4.8940  -4.8007  -4.7621  -4.7604  -4.6880  -4.6823  -4.6184
    -4.6181  -4.4683  -4.4675  -4.3690  -4.3682  -4.3222  -4.2226  -4.2218
    -4.2175  -4.2163  -4.0915  -4.0912  -4.0212  -4.0188  -3.6224  -3.6223
    -3.6002  -3.5983  -3.5863  -3.3812  -3.3810  -3.3653  -3.3635  -3.2374
    -3.2374  -3.1745  -3.0238  -3.0208  -2.9639  -2.9636  -2.7242  -2.6829
    -2.6806  -2.6771  -2.6678  -2.4627  -2.4626  -2.4052  -2.4044  -2.2575
    -2.1763  -2.1728  -2.1644  -2.1619  -1.9562  -1.9506  -1.9407  -1.9280
    -1.9269  -1.8470  -1.8413  -1.8356  -1.8339  -1.7929  -1.5927  -1.5649
    -1.4046  -1.3739  -1.3498  -1.3478  -1.2581  -1.2580  -1.1835  -0.8971
    -0.8934  -0.6892  -0.6431  -0.6428  -0.6006  -0.5729  -0.5410  -0.5370
    -0.5048  -0.4074  -0.3598  -0.3246  -0.2945  -0.2769  -0.2566  -0.2512
    -0.2273  -0.2226  -0.1463  -0.1189  -0.0637   0.0030   0.0218   0.1074
     0.2183   0.2381   0.2748   0.5097   0.5290   0.8044   1.4534   1.7583
     2.1665   2.1678   2.4194   2.4210   2.7417   2.7465   2.7467   2.8396
     2.8672   2.8705   2.8952   2.8988   2.9149   2.9239   2.9556   2.9631
     2.9671   3.0573   3.0616   3.1018   3.1344   3.1398   3.2520   3.2575
     3.2652   3.3130   3.3273   3.3321   3.4543   3.4573   3.4900   3.5840
     3.6030   3.6124   3.7393   3.8280   3.8332   3.8393   3.8766   3.8894
     4.0402

          k = 0.0337-0.0296 0.0000 ( 57978 PWs)   bands (ev):

   -56.3583 -56.3548 -56.3460 -56.3452 -56.3381 -56.3174 -56.3159 -56.3129
   -56.3123 -56.3098 -32.7217 -32.6881 -32.6856 -32.6843 -32.6783 -32.6717
   -32.6636 -32.6621 -32.6530 -32.6507 -32.6496 -32.6407 -32.6394 -32.6310
   -32.6294 -32.6288 -32.6231 -32.6216 -32.5946 -32.5933 -32.4782 -32.4730
   -32.4644 -32.4630 -32.4544 -32.4315 -32.4297 -32.4252 -32.4247 -32.4211
   -17.8682 -17.8574 -17.1191 -17.1185 -15.6579 -15.6481 -15.0291 -15.0183
   -14.3218 -14.3215 -14.3049 -14.3044 -14.1493 -14.1480 -13.9897 -13.9868
   -13.8761 -13.8757 -13.7885 -13.6880 -13.5342 -13.5297 -13.0434 -13.0390
   -12.4725 -12.4623 -12.1736 -12.1703 -11.7897 -11.7893 -11.3061 -11.3058
   -11.1393 -11.1356 -10.8973 -10.8940 -10.7939 -10.7934 -10.7076 -10.7019
   -10.6570 -10.6538 -10.0685 -10.0614  -9.9536  -9.9525  -9.8021  -9.8004
    -9.7112  -9.7083  -9.6038  -9.6034  -9.5493  -9.4494  -8.3021  -8.2952
    -7.8908  -7.8850  -7.5651  -7.5643  -6.0282  -6.0170  -5.8453  -5.8397
    -5.7302  -5.7296  -5.6076  -5.5966  -5.1916  -5.1822  -4.8523  -4.8505
    -4.8500  -4.8499  -4.8114  -4.8106  -4.7541  -4.7523  -4.6719  -4.6710
    -4.6095  -4.5450  -4.5436  -4.4422  -4.4281  -4.4279  -4.3666  -4.2581
    -4.2457  -4.2443  -4.0023  -4.0017  -3.9254  -3.6865  -3.6863  -3.6098
    -3.5903  -3.5872  -3.5803  -3.5777  -3.4676  -3.4656  -3.3119  -3.3111
    -3.2626  -3.2255  -3.1659  -3.1654  -3.0206  -3.0198  -2.6708  -2.6565
    -2.5381  -2.5351  -2.4636  -2.4419  -2.4406  -2.3951  -2.3230  -2.3210
    -2.2045  -2.2037  -2.1562  -2.1094  -2.1083  -2.0820  -2.0712  -2.0560
    -1.8690  -1.8689  -1.8247  -1.8215  -1.6780  -1.6773  -1.5823  -1.5064
    -1.4994  -1.4969  -1.1782  -1.1744  -1.1122  -1.1065  -0.9796  -0.8946
    -0.8784  -0.8752  -0.8743  -0.8369  -0.5572  -0.5551  -0.5078  -0.5035
    -0.4431  -0.4412  -0.4153  -0.4139  -0.3517  -0.3256  -0.2709  -0.2705
    -0.2555  -0.2166  -0.1847  -0.1605  -0.0927  -0.0894   0.1603   0.1632
     0.2876   0.2934   0.4105   0.4122   0.5614   0.5674   1.7226   1.7258
     2.0385   2.0408   2.5460   2.5461   2.7225   2.7229   2.8257   2.8264
     2.8290   2.8580   2.8585   2.8644   2.8984   2.9293   2.9389   2.9720
     2.9975   2.9994   3.1385   3.1416   3.1834   3.1976   3.2744   3.2787
     3.2961   3.3021   3.3941   3.4007   3.4079   3.4280   3.4885   3.5401
     3.6536   3.6605   3.8082   3.8170   3.8548   3.8596   4.0026   4.0194
     4.0450

          k = 0.0674 0.0000 0.0000 ( 57942 PWs)   bands (ev):

   -56.3582 -56.3548 -56.3461 -56.3451 -56.3381 -56.3176 -56.3147 -56.3147
   -56.3113 -56.3100 -32.7157 -32.7061 -32.6787 -32.6779 -32.6771 -32.6697
   -32.6658 -32.6585 -32.6537 -32.6526 -32.6514 -32.6426 -32.6360 -32.6358
   -32.6257 -32.6245 -32.6198 -32.6196 -32.6157 -32.5841 -32.4787 -32.4736
   -32.4653 -32.4634 -32.4551 -32.4331 -32.4290 -32.4290 -32.4240 -32.4224
   -17.5939 -17.2221 -17.2220 -16.1623 -16.1196 -16.1176 -15.7977 -15.7977
   -14.7253 -14.7232 -14.3290 -14.3289 -14.1539 -14.0201 -13.9777 -13.9746
   -13.8612 -13.8611 -13.6825 -13.6822 -13.5860 -13.5845 -13.0262 -13.0261
   -12.2841 -12.0413 -11.8450 -11.8447 -11.4496 -11.4433 -11.3220 -11.3217
   -11.3099 -11.2523 -11.2514 -11.0482 -10.9767 -10.9763 -10.5354 -10.3968
   -10.3958 -10.3346 -10.3343 -10.2869 -10.2051 -10.2049 -10.1860 -10.1858
   -10.0798 -10.0784  -9.2667  -9.2650  -9.1007  -8.9990  -8.9990  -7.6752
    -7.6751  -7.3867  -7.3867  -6.9334  -6.4876  -6.4875  -6.4053  -6.4038
    -6.3078  -5.6962  -5.2670  -5.2664  -5.1075  -5.1069  -5.0667  -4.9880
    -4.9874  -4.5528  -4.5511  -4.5188  -4.5186  -4.4517  -4.3408  -4.3406
    -4.1898  -4.1896  -4.1834  -4.1822  -4.0533  -4.0438  -4.0091  -3.7216
    -3.7203  -3.6630  -3.6622  -3.6126  -3.5258  -3.5244  -3.4850  -3.4388
    -3.4386  -3.3769  -3.3749  -3.3379  -3.1592  -3.1589  -3.1549  -3.0871
    -3.0870  -3.0226  -3.0205  -3.0166  -3.0144  -2.9590  -2.9538  -2.8632
    -2.8625  -2.7635  -2.7593  -2.7144  -2.6650  -2.6646  -2.5492  -2.5461
    -2.5174  -2.5172  -2.5090  -2.2334  -2.2171  -2.1847  -2.1805  -2.1730
    -2.0990  -2.0866  -2.0840  -1.9489  -1.9302  -1.9243  -1.7380  -1.7373
    -1.3924  -1.3874  -1.2375  -1.2374  -1.1515  -1.1511  -1.1020  -1.0491
    -1.0458  -1.0354  -0.8174  -0.8096  -0.7927  -0.6925  -0.6921  -0.6497
    -0.6490  -0.6147  -0.6098  -0.4291  -0.4281  -0.3668  -0.3654  -0.3436
    -0.2651  -0.2469  -0.2332  -0.1940  -0.1533  -0.0313  -0.0035   0.0078
     0.0218   0.0829   0.0840   0.5066   0.7056   1.4080   1.6104   1.6112
     1.7774   2.1517   2.2551   2.2586   2.3905   2.3942   2.4988   2.5061
     2.5259   2.5293   2.6311   2.6319   2.6447   2.6808   2.6830   2.7990
     2.8071   2.8109   2.8597   2.8770   2.9025   2.9076   2.9386   2.9388
     2.9439   2.9484   2.9494   3.1544   3.1650   3.3085   3.3857   3.3922
     3.4182   3.4228   3.4353   3.4728   3.5161   3.5187   3.8287   3.8334
     3.9549

          k = 0.0674-0.0296 0.0000 ( 57938 PWs)   bands (ev):

   -56.3582 -56.3548 -56.3460 -56.3452 -56.3381 -56.3173 -56.3159 -56.3129
   -56.3123 -56.3098 -32.7216 -32.6876 -32.6854 -32.6841 -32.6776 -32.6709
   -32.6629 -32.6610 -32.6528 -32.6514 -32.6506 -32.6415 -32.6401 -32.6311
   -32.6299 -32.6295 -32.6233 -32.6216 -32.5946 -32.5933 -32.4787 -32.4737
   -32.4650 -32.4636 -32.4551 -32.4327 -32.4309 -32.4262 -32.4256 -32.4220
   -17.5062 -17.4953 -16.7604 -16.7598 -16.0763 -16.0654 -15.3468 -15.3464
   -15.3089 -15.2992 -14.1051 -14.1048 -13.9777 -13.9764 -13.9519 -13.9385
   -13.8202 -13.8171 -13.7116 -13.7112 -13.6271 -13.5363 -13.2112 -13.2068
   -12.0485 -12.0467 -11.9933 -11.9902 -11.6100 -11.6096 -11.3930 -11.3902
   -11.0777 -11.0773 -11.0696 -11.0662 -10.7025 -10.6944 -10.4952 -10.4927
   -10.4127 -10.4110 -10.2649 -10.2641 -10.2621 -10.2612 -10.1626 -10.1399
   -10.1395 -10.0542  -9.8762  -9.8757  -8.5372  -8.5302  -8.5216  -8.5188
    -7.6086  -7.6079  -6.8294  -6.8208  -6.8186  -6.8138  -6.1613  -6.1608
    -5.8899  -5.8894  -5.5933  -5.5820  -5.4122  -5.4099  -4.7583  -4.7491
    -4.7055  -4.6998  -4.6039  -4.5122  -4.4510  -4.4501  -4.3715  -4.3693
    -4.2112  -4.2106  -3.9340  -3.9332  -3.9218  -3.9090  -3.7756  -3.7743
    -3.7443  -3.7381  -3.6244  -3.6242  -3.5573  -3.5557  -3.5552  -3.5518
    -3.4515  -3.4492  -3.3437  -3.3432  -3.3263  -3.3237  -3.3061  -3.1093
    -3.1083  -3.0349  -3.0346  -2.9502  -2.9479  -2.9049  -2.8704  -2.8702
    -2.8689  -2.8565  -2.7285  -2.7268  -2.7134  -2.7121  -2.7079  -2.5902
    -2.3897  -2.3884  -2.3660  -2.3270  -2.3265  -2.2661  -2.2648  -2.2613
    -2.2610  -2.2558  -1.8658  -1.8641  -1.7250  -1.7242  -1.5517  -1.4919
    -1.2801  -1.2782  -1.2740  -1.2731  -1.2646  -1.2186  -1.2114  -1.2112
    -0.9711  -0.9705  -0.8470  -0.8442  -0.7801  -0.7756  -0.7467  -0.7190
    -0.6492  -0.6470  -0.4971  -0.4944  -0.4860  -0.4848  -0.4184  -0.3833
    -0.2980  -0.2973  -0.2175  -0.2170  -0.1053  -0.1052   0.1449   0.1477
     0.2698   0.2699   0.3769   0.3775   0.5283   0.5371   1.8657   1.8668
     2.0173   2.0198   2.2569   2.2803   2.4535   2.4535   2.4643   2.5001
     2.5767   2.6269   2.6540   2.6551   2.6715   2.6717   2.6774   2.6913
     2.7441   2.7442   2.8272   2.8326   2.8457   2.8682   2.8941   2.8942
     2.9606   2.9928   3.0407   3.0411   3.2763   3.2852   3.3364   3.3540
     3.4011   3.4281   3.6218   3.6376   3.7198   3.7207   3.7723   3.7725
     3.9269

          k =-0.1011 0.0000 0.0000 ( 57974 PWs)   bands (ev):

   -56.3582 -56.3548 -56.3461 -56.3451 -56.3381 -56.3176 -56.3147 -56.3147
   -56.3113 -56.3100 -32.7156 -32.7060 -32.6783 -32.6775 -32.6769 -32.6696
   -32.6655 -32.6587 -32.6534 -32.6525 -32.6514 -32.6431 -32.6365 -32.6363
   -32.6258 -32.6246 -32.6200 -32.6197 -32.6157 -32.5841 -32.4790 -32.4740
   -32.4656 -32.4637 -32.4555 -32.4337 -32.4296 -32.4296 -32.4244 -32.4229
   -16.9976 -16.9896 -16.6285 -16.6285 -16.6205 -16.6205 -15.5366 -15.5353
   -15.5292 -15.5263 -14.0245 -13.9223 -13.8653 -13.8619 -13.7886 -13.7886
   -13.7656 -13.7654 -13.7616 -13.7612 -13.5760 -13.5755 -13.4956 -13.4941
   -11.8632 -11.8055 -11.7699 -11.7678 -11.6477 -11.6464 -11.5945 -11.5935
   -11.1616 -11.1608 -11.1328 -11.1314 -11.1078 -11.1056 -10.6851 -10.5860
   -10.5703 -10.5675 -10.4708 -10.4704 -10.4362 -10.4360 -10.3321 -10.3309
    -9.1727  -9.1726  -9.1710  -9.1709  -8.3628  -8.3620  -7.6821  -7.6817
    -7.6810  -7.6799  -7.5025  -7.5023  -7.5012  -7.5012  -6.0634  -6.0632
    -6.0623  -6.0622  -5.1832  -5.1817  -5.1809  -5.1783  -5.0654  -4.9131
    -4.8011  -4.7995  -4.6549  -4.6539  -4.4901  -4.4899  -4.4667  -4.4642
    -4.4105  -4.4096  -3.8991  -3.8080  -3.8066  -3.8004  -3.6799  -3.6697
    -3.6402  -3.6401  -3.6335  -3.6332  -3.6330  -3.6329  -3.5732  -3.5708
    -3.4888  -3.4813  -3.2970  -3.2927  -3.1789  -3.1753  -3.0112  -3.0110
    -3.0039  -3.0039  -2.9898  -2.9874  -2.8570  -2.8558  -2.8476  -2.7835
    -2.7806  -2.7799  -2.7509  -2.7501  -2.4179  -2.4178  -2.3828  -2.3605
    -2.2111  -2.2078  -2.1339  -2.1123  -2.1122  -2.0616  -2.0178  -2.0124
    -1.9422  -1.9416  -1.6892  -1.6612  -1.6567  -1.6534  -1.6354  -1.6262
    -1.3884  -1.3335  -1.3233  -1.3200  -1.2281  -1.2277  -1.0480  -1.0429
    -0.9665  -0.9631  -0.9292  -0.9287  -0.8585  -0.8579  -0.8249  -0.8245
    -0.7929  -0.7412  -0.7410  -0.7090  -0.4985  -0.4969  -0.4326  -0.4270
    -0.3830  -0.3753  -0.3145  -0.3048  -0.2003  -0.1914  -0.1769  -0.1334
    -0.1141  -0.1058   0.5383   0.5919   0.6135   0.6349   1.4739   1.5594
     1.6593   1.6691   1.7680   1.7745   1.7809   1.7888   1.8732   1.8821
     1.8838   1.9229   2.3553   2.3851   2.4148   2.4388   2.4641   2.4730
     2.7931   2.7976   2.8393   2.8403   2.8641   2.9076   2.9143   2.9149
     2.9305   2.9379   2.9432   2.9443   2.9771   2.9792   3.2595   3.2607
     3.2935   3.3133   3.3134   3.3711   3.8207   3.8211   3.8573   3.8588
     4.0723

          k =-0.1011-0.0296 0.0000 ( 57984 PWs)   bands (ev):

   -56.3582 -56.3548 -56.3460 -56.3452 -56.3381 -56.3173 -56.3159 -56.3129
   -56.3123 -56.3098 -32.7215 -32.6874 -32.6854 -32.6840 -32.6772 -32.6705
   -32.6626 -32.6603 -32.6522 -32.6519 -32.6515 -32.6418 -32.6405 -32.6312
   -32.6303 -32.6299 -32.6233 -32.6216 -32.5946 -32.5933 -32.4789 -32.4740
   -32.4653 -32.4640 -32.4555 -32.4333 -32.4316 -32.4268 -32.4262 -32.4225
   -16.9107 -16.9023 -16.8996 -16.8917 -16.1709 -16.1702 -16.1627 -16.1624
   -14.7400 -14.7269 -14.7263 -14.7212 -13.9803 -13.9803 -13.8789 -13.8774
   -13.7195 -13.7163 -13.6151 -13.6147 -13.5424 -13.4487 -12.6870 -12.6849
   -12.6826 -12.6807 -11.8090 -11.8062 -11.7523 -11.7491 -11.4102 -11.4101
   -11.3649 -11.3645 -11.0336 -11.0303 -10.6548 -10.6536 -10.5545 -10.5525
   -10.4810 -10.4784 -10.4372 -10.3798 -10.3796 -10.3276 -10.1842 -10.1806
   -10.1785 -10.1768  -8.4024  -8.4023  -8.4022  -8.4022  -8.1728  -8.1724
    -8.1627  -8.1623  -6.9018  -6.9009  -6.8991  -6.8981  -6.3943  -6.3942
    -6.3920  -6.3917  -5.2581  -5.2567  -5.2510  -5.2499  -4.9667  -4.9554
    -4.8122  -4.8004  -4.6709  -4.6148  -4.1927  -4.1842  -4.1806  -4.1794
    -4.1697  -4.1670  -4.0187  -4.0140  -3.9299  -3.9296  -3.8404  -3.8397
    -3.8177  -3.8156  -3.7211  -3.7200  -3.6212  -3.6194  -3.6151  -3.6141
    -3.5838  -3.5068  -3.2440  -3.2434  -3.1997  -3.1955  -3.1268  -3.1172
    -2.9977  -2.9962  -2.9195  -2.9166  -2.8902  -2.8476  -2.8446  -2.7930
    -2.7911  -2.4421  -2.3939  -2.3917  -2.3682  -2.3437  -2.3422  -2.2550
    -2.2316  -2.2099  -2.1925  -2.1405  -2.1399  -2.0733  -2.0730  -2.0567
    -2.0558  -1.9447  -1.8396  -1.7785  -1.7509  -1.7500  -1.6909  -1.6901
    -1.5487  -1.5475  -1.5361  -1.5350  -1.0586  -1.0578  -1.0563  -1.0258
    -0.9972  -0.9971  -0.9430  -0.9282  -0.7756  -0.7753  -0.7554  -0.7552
    -0.6199  -0.6184  -0.5304  -0.5108  -0.5084  -0.5025  -0.4653  -0.4651
    -0.3965  -0.3964  -0.1955  -0.1902  -0.1899  -0.1871  -0.0414  -0.0378
     0.0048   0.0087   0.2274   0.2321   0.2852   0.2858   1.5752   1.5903
     1.6793   1.6807   1.7294   1.7318   1.8006   1.8343   1.8347   1.8958
     2.0578   2.0589   2.1013   2.1045   2.7181   2.7181   2.7642   2.7643
     2.7966   2.8361   2.8383   2.8422   2.8820   2.8836   2.8927   2.9269
     2.9629   2.9731   2.9888   2.9958   3.0716   3.0907   3.1003   3.1240
     3.2371   3.2382   3.2638   3.2653   3.5915   3.5919   3.6410   3.6413
     3.8341

     the Fermi energy is     1.2806 ev

!    total energy              =   -2323.03685355 Ry
     Harris-Foulkes estimate   =   -2323.03685322 Ry
     estimated scf accuracy    <       0.00000070 Ry

     The total energy is the sum of the following terms:

     one-electron contribution =  -19217.66970930 Ry
     hartree contribution      =    9690.36232773 Ry
     xc contribution           =    -590.81359629 Ry
     ewald contribution        =    7795.09222546 Ry
     smearing contrib. (-TS)   =      -0.00810116 Ry

     convergence has been achieved in  17 iterations

     Forces acting on atoms (Ry/au):


     negative rho (up, down):  0.330E-01 0.000E+00
     atom    1 type  1   force =    -0.00874702    0.00008093    0.01784658
     atom    2 type  1   force =    -0.00897597    0.00000000    0.01765306
     atom    3 type  1   force =    -0.00874702   -0.00008093    0.01784658
     atom    4 type  1   force =    -0.00826805   -0.00027116    0.01814633
     atom    5 type  1   force =    -0.00826805    0.00027116    0.01814633
     atom    6 type  1   force =     0.00836097    0.00000323   -0.02091219
     atom    7 type  1   force =     0.00836097   -0.00000323   -0.02091219
     atom    8 type  1   force =     0.00840409   -0.00012530   -0.02090642
     atom    9 type  1   force =     0.00841439    0.00000000   -0.02088188
     atom   10 type  1   force =     0.00840409    0.00012530   -0.02090642
     atom   11 type  2   force =     0.02969568   -0.00001704   -0.01629677
     atom   12 type  2   force =     0.02972122    0.00000000   -0.01629343
     atom   13 type  2   force =     0.02969568    0.00001704   -0.01629677
     atom   14 type  2   force =     0.02971667    0.00001058   -0.01630902
     atom   15 type  2   force =     0.02971667   -0.00001058   -0.01630902
     atom   16 type  2   force =    -0.02715746    0.00008848    0.00528751
     atom   17 type  2   force =    -0.02715746   -0.00008848    0.00528751
     atom   18 type  2   force =    -0.02646175   -0.00050209    0.00592834
     atom   19 type  2   force =    -0.02683049    0.00000000    0.00674609
     atom   20 type  2   force =    -0.02646175    0.00050209    0.00592834
     atom   21 type  2   force =     0.00531468    0.00000572    0.00529454
     atom   22 type  2   force =     0.00533343    0.00000000    0.00542634
     atom   23 type  2   force =     0.00531468   -0.00000572    0.00529454
     atom   24 type  2   force =     0.00527427   -0.00006075    0.00512964
     atom   25 type  2   force =     0.00527427    0.00006075    0.00512964
     atom   26 type  2   force =    -0.00523663   -0.00006257   -0.00411007
     atom   27 type  2   force =    -0.00523663    0.00006257   -0.00411007
     atom   28 type  2   force =    -0.00524485    0.00011516   -0.00416850
     atom   29 type  2   force =    -0.00524398    0.00000000   -0.00379875
     atom   30 type  2   force =    -0.00524485   -0.00011516   -0.00416850
     atom   31 type  2   force =    -0.03539372   -0.00001421   -0.00954744
     atom   32 type  2   force =    -0.03542043    0.00000000   -0.00954854
     atom   33 type  2   force =    -0.03539372    0.00001421   -0.00954744
     atom   34 type  2   force =    -0.03541196    0.00000976   -0.00955262
     atom   35 type  2   force =    -0.03541196   -0.00000976   -0.00955262
     atom   36 type  2   force =     0.03213928    0.00015807   -0.00342375
     atom   37 type  2   force =     0.03213928   -0.00015807   -0.00342375
     atom   38 type  2   force =     0.03250819   -0.00077042   -0.00227128
     atom   39 type  2   force =     0.03352588    0.00000000   -0.00101797
     atom   40 type  2   force =     0.03250819    0.00077042   -0.00227128
     atom   41 type  3   force =    -0.00044763   -0.00742949    0.00424665
     atom   42 type  3   force =    -0.00042867   -0.00791525    0.00157020
     atom   43 type  3   force =    -0.00040450   -0.00892217    0.00443836
     atom   44 type  3   force =    -0.00039419   -0.00839422    0.00712953
     atom   45 type  3   force =    -0.00053124   -0.00734245    0.00316916
     atom   46 type  3   force =    -0.00042664   -0.00769033    0.00074218
     atom   47 type  3   force =    -0.00072443   -0.00849840    0.00253221
     atom   48 type  3   force =    -0.00079304   -0.00814854    0.00504755
     atom   49 type  3   force =    -0.00042867    0.00791525    0.00157020
     atom   50 type  3   force =    -0.00044763    0.00742949    0.00424665
     atom   51 type  3   force =    -0.00039419    0.00839422    0.00712953
     atom   52 type  3   force =    -0.00040450    0.00892217    0.00443836
     atom   53 type  3   force =    -0.00042664    0.00769033    0.00074218
     atom   54 type  3   force =    -0.00053124    0.00734245    0.00316916
     atom   55 type  3   force =    -0.00079304    0.00814854    0.00504755
     atom   56 type  3   force =    -0.00072443    0.00849840    0.00253221
     atom   57 type  3   force =     0.00040292   -0.00875295    0.00354493
     atom   58 type  3   force =     0.00038963   -0.00842124    0.00616423
     atom   59 type  3   force =     0.00047059   -0.00793931    0.00542068
     atom   60 type  3   force =     0.00046147   -0.00821446    0.00271771
     atom   61 type  3   force =     0.00068627   -0.00874663    0.00262072
     atom   62 type  3   force =     0.00086909   -0.00848668    0.00489857
     atom   63 type  3   force =     0.00065910   -0.00835675    0.00442773
     atom   64 type  3   force =     0.00045687   -0.00857509    0.00205225
     atom   65 type  3   force =     0.00038963    0.00842124    0.00616423
     atom   66 type  3   force =     0.00040292    0.00875295    0.00354493
     atom   67 type  3   force =     0.00046147    0.00821446    0.00271771
     atom   68 type  3   force =     0.00047059    0.00793931    0.00542068
     atom   69 type  3   force =     0.00086909    0.00848668    0.00489857
     atom   70 type  3   force =     0.00068627    0.00874663    0.00262072
     atom   71 type  3   force =     0.00045687    0.00857509    0.00205225
     atom   72 type  3   force =     0.00065910    0.00835675    0.00442773

     Total force =     0.171250     Total SCF correction =     0.001863

     BFGS Geometry Optimization

     number of scf cycles    =   1
     number of bfgs steps    =   0

     energy   new            =   -2323.0368535528 Ry

     new trust radius        =       0.0366848924 bohr
     new conv_thr            =       0.0000010000 Ry


ATOMIC_POSITIONS (crystal)
Ti       0.327512450   0.050002535   0.105119760
Ti       0.327487963   0.250000000   0.105115664
Ti       0.327512450   0.449997465   0.105119760
Ti       0.327563680   0.649991506   0.105126105
Ti       0.327563680   0.850008494   0.105126105
Ti       0.825720259   0.150000101  -0.000442650
Ti       0.825720259   0.349999899  -0.000442650
Ti       0.825724870   0.549996075  -0.000442528
Ti       0.825725973   0.750000000  -0.000442009
Ti       0.825724870   0.950003925  -0.000442528
S        0.617053141   0.049999466   0.939792045
S        0.617055874   0.250000000   0.939792115
S        0.617053141   0.450000534   0.939792045
S        0.617055386   0.650000332   0.939791785
S        0.617055386   0.849999668   0.939791785
S        0.536492337   0.150002771   0.164716921
S        0.536492337   0.349997229   0.164716921
S        0.536566748   0.549984272   0.164730486
S        0.536527308   0.750000000   0.164747795
S        0.536566748   0.950015728   0.164730486
S        0.825258439   0.050000179   0.070310070
S        0.825260444   0.250000000   0.070312860
S        0.825258439   0.449999821   0.070310070
S        0.825254117   0.649998097   0.070306579
S        0.825254117   0.850001903   0.070306579
S        0.328022910   0.149998040   0.034457002
S        0.328022910   0.350001960   0.034457002
S        0.328022029   0.550003607   0.034455765
S        0.328022123   0.750000000   0.034463591
S        0.328022029   0.949996393   0.034455765
S        0.037788417   0.049999555   0.938755908
S        0.037785560   0.250000000   0.938755885
S        0.037788417   0.450000445   0.938755908
S        0.037786466   0.650000306   0.938755799
S        0.037786466   0.849999694   0.938755799
S        0.115137500   0.150004952   0.165711529
S        0.115137500   0.349995048   0.165711529
S        0.115176958   0.549975867   0.165735924
S        0.115285806   0.750000000   0.165762453
S        0.115176958   0.950024133   0.165735924
C        0.374952123   0.208122276   0.292935489
C        0.374954151   0.458107060   0.292878837
C        0.374956737   0.708075519   0.292939547
C        0.374957839   0.958092057   0.292996511
C        0.874943180   0.208125003   0.292912682
C        0.874954368   0.458114106   0.292861310
C        0.874922518   0.708088793   0.292899199
C        0.874915179   0.958099752   0.292952442
C        0.374954151   0.041892940   0.292878837
C        0.374952123   0.291877724   0.292935489
C        0.374957839   0.541907943   0.292996511
C        0.374956737   0.791924481   0.292939547
C        0.874954368   0.041885894   0.292861310
C        0.874943180   0.291874997   0.292912682
C        0.874915179   0.541900248   0.292952442
C        0.874922518   0.791911207   0.292899199
C        0.125043094   0.083080820   0.292920636
C        0.125041673   0.333091211   0.292976079
C        0.125050333   0.583106307   0.292960340
C        0.125049358   0.833097688   0.292903126
C        0.625073400   0.083081018   0.292901073
C        0.625092954   0.333089161   0.292949289
C        0.625070495   0.583093231   0.292939322
C        0.625048865   0.833086391   0.292889040
C        0.125041673   0.166908789   0.292976079
C        0.125043094   0.416919180   0.292920636
C        0.125049358   0.666902312   0.292903126
C        0.125050333   0.916893693   0.292960340
C        0.625092954   0.166910839   0.292949289
C        0.625073400   0.416918982   0.292901073
C        0.625048865   0.666913609   0.292889040
C        0.625070495   0.916906769   0.292939322



     Writing output data file TiS3.save
     Check: negative starting charge=   -0.024324
     NEW-OLD atomic charge density approx. for the potential

     Check: negative/imaginary core charge=   -0.000006    0.000000
     Check: negative starting charge=   -0.024264

     negative rho (up, down):  0.327E-01 0.000E+00

     total cpu time spent up to now is    34161.4 secs

     per-process dynamical memory:  1336.3 Mb

     Self-consistent Calculation

     iteration #  1     ecut=    39.00 Ry     beta=0.30
     Davidson diagonalization with overlap
     ethr =  1.00E-06,  avg # of iterations =  5.8

     negative rho (up, down):  0.328E-01 0.000E+00

     total cpu time spent up to now is    40732.5 secs

     total energy              =   -2323.05648933 Ry
     Harris-Foulkes estimate   =   -2323.05821217 Ry
     estimated scf accuracy    <       0.00454424 Ry

     iteration #  2     ecut=    39.00 Ry     beta=0.30
     Davidson diagonalization with overlap
     ethr =  1.06E-06,  avg # of iterations =  7.0

     negative rho (up, down):  0.328E-01 0.000E+00

     total cpu time spent up to now is    42715.2 secs

     total energy              =   -2323.05640826 Ry
     Harris-Foulkes estimate   =   -2323.05842468 Ry
     estimated scf accuracy    <       0.01063470 Ry

     iteration #  3     ecut=    39.00 Ry     beta=0.30
     Davidson diagonalization with overlap
     ethr =  1.06E-06,  avg # of iterations =  6.9

     negative rho (up, down):  0.329E-01 0.000E+00

     total cpu time spent up to now is    44485.7 secs

     total energy              =   -2323.05730605 Ry
     Harris-Foulkes estimate   =   -2323.05746998 Ry
     estimated scf accuracy    <       0.00064568 Ry

     iteration #  4     ecut=    39.00 Ry     beta=0.30
     Davidson diagonalization with overlap
     c_bands:  1 eigenvalues not converged
     ethr =  1.51E-07,  avg # of iterations =  7.1

     negative rho (up, down):  0.329E-01 0.000E+00

     total cpu time spent up to now is    46612.8 secs

     total energy              =   -2323.05738307 Ry
     Harris-Foulkes estimate   =   -2323.05755877 Ry
     estimated scf accuracy    <       0.00103254 Ry

     iteration #  5     ecut=    39.00 Ry     beta=0.30
     Davidson diagonalization with overlap
     ethr =  1.51E-07,  avg # of iterations =  3.2

     negative rho (up, down):  0.329E-01 0.000E+00

     total cpu time spent up to now is    48222.6 secs

     total energy              =   -2323.05746181 Ry
     Harris-Foulkes estimate   =   -2323.05748285 Ry
     estimated scf accuracy    <       0.00016767 Ry

     iteration #  6     ecut=    39.00 Ry     beta=0.30
     Davidson diagonalization with overlap
     ethr =  3.92E-08,  avg # of iterations =  4.1

     negative rho (up, down):  0.330E-01 0.000E+00

     total cpu time spent up to now is    49841.1 secs

     total energy              =   -2323.05748300 Ry
     Harris-Foulkes estimate   =   -2323.05748315 Ry
     estimated scf accuracy    <       0.00003226 Ry

     iteration #  7     ecut=    39.00 Ry     beta=0.30
     Davidson diagonalization with overlap
     ethr =  7.54E-09,  avg # of iterations =  4.2

     negative rho (up, down):  0.330E-01 0.000E+00

     total cpu time spent up to now is    52038.3 secs

     total energy              =   -2323.05749378 Ry
     Harris-Foulkes estimate   =   -2323.05749554 Ry
     estimated scf accuracy    <       0.00003014 Ry

     iteration #  8     ecut=    39.00 Ry     beta=0.30
     Davidson diagonalization with overlap
     ethr =  7.04E-09,  avg # of iterations =  2.0

     negative rho (up, down):  0.330E-01 0.000E+00

     total cpu time spent up to now is    53588.2 secs

     total energy              =   -2323.05749542 Ry
     Harris-Foulkes estimate   =   -2323.05749607 Ry
     estimated scf accuracy    <       0.00001249 Ry

     iteration #  9     ecut=    39.00 Ry     beta=0.30
     Davidson diagonalization with overlap
     ethr =  2.92E-09,  avg # of iterations =  3.4

     negative rho (up, down):  0.330E-01 0.000E+00

     total cpu time spent up to now is    55211.1 secs

     total energy              =   -2323.05749656 Ry
     Harris-Foulkes estimate   =   -2323.05749684 Ry
     estimated scf accuracy    <       0.00000532 Ry

     iteration # 10     ecut=    39.00 Ry     beta=0.30
     Davidson diagonalization with overlap
     ethr =  1.24E-09,  avg # of iterations =  3.6

     negative rho (up, down):  0.330E-01 0.000E+00

     total cpu time spent up to now is    57020.6 secs

     total energy              =   -2323.05749755 Ry
     Harris-Foulkes estimate   =   -2323.05749744 Ry
     estimated scf accuracy    <       0.00000111 Ry

     iteration # 11     ecut=    39.00 Ry     beta=0.30
     Davidson diagonalization with overlap
     ethr =  2.59E-10,  avg # of iterations =  4.6

     negative rho (up, down):  0.330E-01 0.000E+00

     total cpu time spent up to now is    59107.0 secs

     End of self-consistent calculation

          k = 0.0000 0.0000 0.0000 ( 58029 PWs)   bands (ev):

   -56.3151 -56.3117 -56.3024 -56.3015 -56.2941 -56.2755 -56.2727 -56.2727
   -56.2693 -56.2681 -32.6800 -32.6701 -32.6440 -32.6426 -32.6401 -32.6316
   -32.6278 -32.6191 -32.6173 -32.6161 -32.6119 -32.6038 -32.5974 -32.5973
   -32.5878 -32.5867 -32.5835 -32.5832 -32.5785 -32.5480 -32.4297 -32.4244
   -32.4159 -32.4138 -32.4052 -32.3832 -32.3792 -32.3792 -32.3744 -32.3730
   -18.0712 -17.6967 -17.6967 -16.5843 -16.5837 -14.7735 -14.7734 -14.5811
   -14.4229 -14.3907 -14.3886 -14.2648 -14.2647 -14.0727 -14.0722 -13.9811
   -13.9800 -13.8670 -13.8613 -13.5371 -13.5371 -13.5315 -13.5315 -12.9078
   -12.9068 -12.7257 -12.2610 -12.0592 -12.0586 -11.8022 -11.7995 -11.7427
   -11.4710 -11.4708 -10.8002 -10.7998 -10.6206 -10.5904 -10.5903 -10.5766
   -10.5764 -10.5697 -10.5696  -9.6437  -9.5224  -9.4957  -9.4893  -9.3712
    -9.3710  -9.2142  -9.2126  -9.1636  -9.1635  -9.0997  -9.0985  -9.0767
    -9.0643  -7.4888  -7.4852  -6.2911  -5.9532  -5.9526  -5.9484  -5.9484
    -5.8782  -5.8772  -5.8660  -5.8658  -5.4529  -5.2569  -5.2541  -5.2485
    -5.1838  -5.1723  -5.1720  -5.1262  -5.1249  -4.9382  -4.9364  -4.9020
    -4.9000  -4.8811  -4.8810  -4.6362  -4.6345  -4.4430  -4.4125  -4.4109
    -4.2604  -4.2601  -4.1136  -4.1105  -4.0131  -3.8620  -3.8607  -3.6884
    -3.6883  -3.5974  -3.5951  -3.3704  -3.3702  -3.2883  -3.2857  -3.2395
    -3.2243  -3.2209  -2.8920  -2.8918  -2.7929  -2.7795  -2.7612  -2.7585
    -2.5411  -2.5409  -2.4426  -2.4311  -2.3684  -2.2889  -2.2139  -2.2124
    -2.0526  -2.0465  -2.0129  -2.0109  -1.8350  -1.8096  -1.8094  -1.6454
    -1.6242  -1.5971  -1.5413  -1.4783  -1.3827  -1.3799  -1.2946  -1.2914
    -1.2800  -1.1987  -1.1954  -1.1680  -1.1422  -1.1360  -1.1194  -1.1188
    -1.0953  -1.0921  -0.9811  -0.9007  -0.8311  -0.5212  -0.5195  -0.4787
    -0.4743  -0.3953  -0.3881  -0.3348  -0.2388  -0.2379  -0.2169  -0.1643
    -0.1355  -0.1181  -0.0960  -0.0933  -0.0608   0.0550   0.0554   0.1446
     0.3523   0.3525   0.3763   0.5278   0.8320   0.9518   1.3679   1.7672
     2.1013   2.1027   2.4702   2.4733   2.7963   2.8008   2.8990   2.9020
     2.9711   2.9875   3.0474   3.0912   3.1133   3.1141   3.1223   3.1475
     3.1725   3.1956   3.2338   3.2454   3.3217   3.3615   3.3624   3.4381
     3.4394   3.5378   3.5813   3.5902   3.6268   3.6340   3.6710   3.7310
     3.7352   3.7436   3.7509   3.7579   3.7947   3.7985   3.8116   3.8126
     3.8241

          k = 0.0000-0.0296 0.0000 ( 58052 PWs)   bands (ev):

   -56.3151 -56.3117 -56.3023 -56.3015 -56.2941 -56.2753 -56.2740 -56.2708
   -56.2704 -56.2679 -32.6858 -32.6529 -32.6494 -32.6480 -32.6399 -32.6331
   -32.6251 -32.6238 -32.6163 -32.6146 -32.6112 -32.6030 -32.6018 -32.5939
   -32.5915 -32.5910 -32.5855 -32.5843 -32.5586 -32.5573 -32.4297 -32.4245
   -32.4156 -32.4141 -32.4052 -32.3828 -32.3811 -32.3765 -32.3760 -32.3726
   -17.9825 -17.9722 -17.2325 -17.2299 -15.7642 -15.7575 -14.5287 -14.5282
   -14.3809 -14.3798 -14.2211 -14.2193 -14.1126 -14.1122 -14.0212 -13.9286
   -13.7878 -13.7821 -13.7775 -13.7719 -13.6385 -13.6354 -13.1717 -13.1711
   -13.1647 -13.1617 -12.2121 -12.2089 -11.8074 -11.8068 -11.3910 -11.3902
   -11.3854 -11.3822 -11.1075 -11.1009 -10.6947 -10.6900 -10.6323 -10.6317
   -10.6087 -10.6057  -9.6627  -9.6610  -9.6560  -9.6514  -9.6019  -9.5990
    -9.4823  -9.4810  -9.3396  -9.3360  -9.2256  -9.2253  -9.1624  -9.0485
    -7.5332  -7.5312  -6.8924  -6.8876  -6.8848  -6.8803  -6.1888  -6.1785
    -5.4115  -5.4016  -5.3959  -5.3947  -5.2251  -5.2212  -5.2122  -5.2121
    -5.1894  -5.1884  -5.1595  -5.1546  -5.1528  -5.1511  -4.9800  -4.9793
    -4.9717  -4.8390  -4.7139  -4.5352  -4.4405  -4.4398  -4.3517  -4.3505
    -4.2834  -4.2798  -4.0273  -4.0264  -3.9857  -3.9329  -3.9296  -3.7808
    -3.7808  -3.7507  -3.7461  -3.5070  -3.3920  -3.2921  -3.2919  -3.2532
    -3.2512  -3.1993  -3.1969  -3.1245  -3.0418  -3.0409  -2.5943  -2.5924
    -2.4581  -2.4575  -2.2090  -2.2089  -2.1648  -2.1439  -2.1199  -2.0827
    -2.0470  -2.0464  -2.0350  -2.0285  -1.9121  -1.8985  -1.6906  -1.6860
    -1.6071  -1.5293  -1.5275  -1.4647  -1.4447  -1.4139  -1.3293  -1.3236
    -1.2609  -1.2475  -1.2456  -1.2378  -1.2355  -1.2345  -1.0299  -1.0156
    -0.9986  -0.9808  -0.9263  -0.9263  -0.8388  -0.8368  -0.6962  -0.6948
    -0.5010  -0.4934  -0.3259  -0.3252  -0.2094  -0.1794  -0.1726  -0.1103
    -0.0476  -0.0425  -0.0302  -0.0029   0.1006   0.1008   0.1110   0.1235
     0.2995   0.3010   0.3325   0.3328   0.8112   0.8158   1.6360   1.6393
     2.0859   2.0882   2.5137   2.5138   2.7588   2.7588   2.9477   2.9507
     2.9772   2.9868   3.0321   3.0329   3.1548   3.1573   3.1590   3.1627
     3.1752   3.1908   3.3105   3.3271   3.3899   3.3905   3.4530   3.4534
     3.4847   3.4905   3.5169   3.5209   3.5539   3.5552   3.5751   3.6122
     3.6743   3.6766   3.7699   3.8727   3.8740   3.8930   3.9097   3.9143
     4.0206

          k = 0.0337 0.0000 0.0000 ( 58063 PWs)   bands (ev):

   -56.3151 -56.3117 -56.3024 -56.3015 -56.2941 -56.2755 -56.2727 -56.2727
   -56.2693 -56.2681 -32.6799 -32.6700 -32.6438 -32.6424 -32.6398 -32.6314
   -32.6275 -32.6192 -32.6171 -32.6159 -32.6120 -32.6043 -32.5978 -32.5978
   -32.5879 -32.5868 -32.5837 -32.5834 -32.5785 -32.5480 -32.4300 -32.4247
   -32.4161 -32.4141 -32.4055 -32.3837 -32.3798 -32.3798 -32.3749 -32.3735
   -17.9501 -17.5762 -17.5762 -16.4657 -16.4651 -15.1089 -14.7525 -14.7524
   -14.6599 -14.6599 -14.5016 -14.3548 -14.3166 -14.3145 -14.1983 -14.1982
   -14.0129 -14.0120 -13.9203 -13.9192 -13.7175 -13.7172 -12.6227 -12.4959
   -12.4848 -12.4812 -12.1843 -11.9832 -11.9827 -11.6431 -11.4104 -11.4103
   -11.3997 -11.3997 -10.8631 -10.8203 -10.8197 -10.8059 -10.8042 -10.7643
   -10.7642 -10.1759  -9.9491  -9.8019  -9.8011  -9.7799  -9.6657  -9.6655
    -9.5615  -9.5598  -9.4398  -9.4387  -9.2218  -9.2217  -9.0964  -9.0964
    -8.5184  -7.7979  -6.7358  -6.7357  -6.2686  -6.1315  -5.9197  -5.9179
    -5.7489  -5.7023  -5.7017  -5.3715  -5.3714  -5.1100  -5.1091  -4.9775
    -4.9757  -4.9069  -4.8038  -4.7801  -4.7782  -4.7266  -4.7220  -4.6202
    -4.6197  -4.4829  -4.4822  -4.3880  -4.3868  -4.3258  -4.2917  -4.2904
    -4.2401  -4.2391  -4.1226  -4.1219  -4.0215  -4.0187  -3.5708  -3.5686
    -3.5655  -3.5653  -3.5339  -3.3674  -3.3660  -3.3301  -3.3291  -3.3157
    -3.3156  -3.2614  -3.1039  -3.1002  -2.9710  -2.9707  -2.7718  -2.7610
    -2.7105  -2.7031  -2.7030  -2.4756  -2.4747  -2.3862  -2.3854  -2.3469
    -2.2956  -2.2549  -2.1712  -2.1712  -1.9335  -1.9256  -1.8824  -1.8809
    -1.8712  -1.8647  -1.8192  -1.7931  -1.7901  -1.7399  -1.5691  -1.5397
    -1.3781  -1.3473  -1.3245  -1.3218  -1.2131  -1.2130  -1.1269  -0.8673
    -0.8636  -0.7174  -0.6021  -0.5943  -0.5941  -0.5853  -0.5440  -0.5087
    -0.4871  -0.3614  -0.3273  -0.2926  -0.2762  -0.2592  -0.2344  -0.2335
    -0.1975  -0.1920  -0.1215  -0.0989  -0.0291   0.0324   0.0466   0.1232
     0.2577   0.2739   0.3145   0.5166   0.5578   0.8582   1.4744   1.7781
     2.1915   2.1929   2.4570   2.4584   2.7758   2.7762   2.7868   2.8044
     2.8754   2.8782   2.9213   2.9245   2.9419   2.9425   2.9863   2.9955
     3.0021   3.0830   3.0869   3.1565   3.1714   3.2216   3.3018   3.3050
     3.3130   3.3732   3.3883   3.3884   3.5113   3.5253   3.5500   3.6171
     3.6294   3.6501   3.7899   3.8077   3.8486   3.8568   3.8927   3.8979
     4.0908

          k = 0.0337-0.0296 0.0000 ( 57978 PWs)   bands (ev):

   -56.3151 -56.3117 -56.3023 -56.3015 -56.2941 -56.2753 -56.2740 -56.2708
   -56.2704 -56.2678 -32.6857 -32.6527 -32.6493 -32.6478 -32.6396 -32.6327
   -32.6247 -32.6232 -32.6164 -32.6149 -32.6113 -32.6034 -32.6022 -32.5940
   -32.5918 -32.5913 -32.5855 -32.5843 -32.5586 -32.5574 -32.4299 -32.4248
   -32.4158 -32.4144 -32.4055 -32.3833 -32.3816 -32.3770 -32.3765 -32.3730
   -17.8616 -17.8513 -17.1127 -17.1101 -15.6474 -15.6408 -15.0243 -15.0142
   -14.4507 -14.4503 -14.3185 -14.3161 -14.3131 -14.3120 -14.1492 -14.1475
   -14.0486 -14.0482 -13.9615 -13.8692 -13.5300 -13.5269 -13.0246 -13.0241
   -12.4548 -12.4447 -12.1355 -12.1324 -11.7349 -11.7343 -11.3290 -11.3273
   -11.0740 -11.0677 -10.8340 -10.8314 -10.7400 -10.7362 -10.7274 -10.7262
   -10.6061 -10.6013 -10.0821 -10.0788  -9.9088  -9.9085  -9.7501  -9.7488
    -9.6713  -9.6676  -9.5487  -9.5485  -9.5107  -9.3942  -8.3354  -8.3305
    -7.8535  -7.8465  -7.5048  -7.5028  -6.0281  -6.0176  -5.7896  -5.7817
    -5.6970  -5.6951  -5.6580  -5.6495  -5.1998  -5.1892  -4.9121  -4.9113
    -4.8667  -4.8652  -4.7734  -4.7711  -4.7557  -4.7543  -4.6886  -4.6877
    -4.6714  -4.5031  -4.4711  -4.4684  -4.4354  -4.4353  -4.3742  -4.2510
    -4.2490  -4.2481  -4.0078  -4.0071  -3.9257  -3.7002  -3.7000  -3.6307
    -3.6282  -3.5738  -3.5345  -3.5341  -3.5327  -3.5312  -3.3146  -3.3142
    -3.2756  -3.2537  -3.2474  -3.1895  -3.0704  -3.0696  -2.6615  -2.6484
    -2.5841  -2.5811  -2.5345  -2.5323  -2.4915  -2.4128  -2.4123  -2.4099
    -2.1805  -2.1792  -2.1547  -2.0762  -2.0517  -2.0442  -2.0419  -2.0357
    -1.8589  -1.8589  -1.7705  -1.7675  -1.6484  -1.6484  -1.5659  -1.4768
    -1.4352  -1.4330  -1.1855  -1.1806  -1.1186  -1.1153  -0.9506  -0.8544
    -0.8490  -0.8458  -0.8354  -0.8068  -0.5542  -0.5520  -0.5140  -0.5123
    -0.4165  -0.4146  -0.3694  -0.3675  -0.3211  -0.2930  -0.2485  -0.2311
    -0.2107  -0.1834  -0.1562  -0.1366  -0.0644  -0.0611   0.1909   0.1971
     0.3019   0.3105   0.4459   0.4467   0.5954   0.6004   1.7439   1.7470
     2.0685   2.0711   2.5739   2.5740   2.7509   2.7524   2.8123   2.8206
     2.8597   2.8862   2.8906   2.8971   2.9431   2.9594   2.9654   3.0010
     3.0340   3.0363   3.1662   3.1710   3.1962   3.2042   3.3297   3.3360
     3.3452   3.3493   3.4505   3.4597   3.4722   3.4787   3.5463   3.5726
     3.6793   3.6845   3.8583   3.8637   3.8973   3.9107   4.0544   4.0592
     4.0705

          k = 0.0674 0.0000 0.0000 ( 57942 PWs)   bands (ev):

   -56.3151 -56.3116 -56.3024 -56.3014 -56.2941 -56.2755 -56.2727 -56.2727
   -56.2693 -56.2681 -32.6797 -32.6699 -32.6432 -32.6419 -32.6391 -32.6311
   -32.6268 -32.6195 -32.6166 -32.6155 -32.6120 -32.6052 -32.5987 -32.5986
   -32.5881 -32.5870 -32.5839 -32.5836 -32.5784 -32.5480 -32.4305 -32.4254
   -32.4167 -32.4148 -32.4062 -32.3849 -32.3809 -32.3809 -32.3757 -32.3743
   -17.5880 -17.2157 -17.2157 -16.1575 -16.1111 -16.1105 -15.7924 -15.7924
   -14.7175 -14.7169 -14.3257 -14.3218 -14.3184 -14.2039 -14.1542 -14.1522
   -14.0498 -14.0496 -13.8699 -13.8695 -13.7849 -13.7838 -13.0148 -13.0147
   -12.3143 -11.9973 -11.7930 -11.7928 -11.3716 -11.3629 -11.2590 -11.2574
   -11.2573 -11.1825 -11.1810 -11.0864 -10.9099 -10.9095 -10.4610 -10.3647
   -10.3638 -10.3031 -10.3017 -10.2180 -10.1316 -10.1315 -10.1193 -10.1186
    -9.9948  -9.9937  -9.2784  -9.2777  -9.0919  -8.9453  -8.9453  -7.6986
    -7.6984  -7.3664  -7.3664  -6.9790  -6.5377  -6.5376  -6.3830  -6.3665
    -6.3651  -5.6943  -5.2672  -5.2666  -5.0751  -5.0732  -5.0169  -5.0155
    -4.9689  -4.5787  -4.5773  -4.5382  -4.5380  -4.4668  -4.2934  -4.2933
    -4.2470  -4.2470  -4.1950  -4.1937  -4.0508  -4.0431  -4.0083  -3.6996
    -3.6985  -3.6822  -3.6811  -3.6403  -3.5206  -3.5080  -3.5065  -3.4816
    -3.4815  -3.4440  -3.4051  -3.4047  -3.2293  -3.1372  -3.1360  -3.0683
    -3.0648  -3.0588  -3.0584  -3.0490  -3.0476  -3.0007  -2.9975  -2.9053
    -2.9047  -2.8499  -2.8439  -2.7439  -2.7436  -2.5949  -2.5924  -2.5895
    -2.4859  -2.4853  -2.4811  -2.2726  -2.2312  -2.2182  -2.1996  -2.1992
    -2.1840  -2.0276  -2.0247  -1.9135  -1.9134  -1.9076  -1.7547  -1.7546
    -1.3900  -1.3843  -1.2258  -1.2254  -1.1198  -1.1188  -1.1039  -1.0182
    -1.0158  -0.9890  -0.7739  -0.7651  -0.7302  -0.6629  -0.6624  -0.6127
    -0.6117  -0.5797  -0.5762  -0.3974  -0.3958  -0.3326  -0.3313  -0.3217
    -0.2815  -0.2235  -0.2110  -0.1514  -0.1245  -0.0080   0.0265   0.0370
     0.0556   0.0820   0.1043   0.5254   0.7544   1.4705   1.5584   1.6337
     1.7956   2.2302   2.2948   2.2980   2.4224   2.4261   2.5929   2.5995
     2.6147   2.6166   2.6964   2.7298   2.7306   2.7717   2.7733   2.8667
     2.8709   2.8963   2.9224   2.9349   2.9451   2.9485   2.9898   2.9913
     3.0076   3.0090   3.0402   3.2173   3.2305   3.3509   3.4134   3.4679
     3.4840   3.4897   3.5117   3.5496   3.5900   3.5947   3.9335   3.9383
     4.0084

          k = 0.0674-0.0296 0.0000 ( 57938 PWs)   bands (ev):

   -56.3151 -56.3116 -56.3023 -56.3015 -56.2941 -56.2753 -56.2740 -56.2708
   -56.2704 -56.2678 -32.6856 -32.6523 -32.6491 -32.6476 -32.6389 -32.6320
   -32.6239 -32.6219 -32.6166 -32.6158 -32.6118 -32.6041 -32.6028 -32.5941
   -32.5924 -32.5920 -32.5857 -32.5843 -32.5586 -32.5574 -32.4305 -32.4254
   -32.4164 -32.4150 -32.4062 -32.3845 -32.3829 -32.3780 -32.3775 -32.3738
   -17.4998 -17.4896 -16.7544 -16.7518 -16.0710 -16.0608 -15.3417 -15.3393
   -15.2988 -15.2923 -14.2759 -14.2755 -14.1626 -14.1615 -14.0030 -14.0014
   -13.9529 -13.9313 -13.9055 -13.9051 -13.8063 -13.7374 -13.2069 -13.2038
   -12.0319 -12.0313 -11.9470 -11.9441 -11.5509 -11.5505 -11.3209 -11.3188
   -11.0092 -11.0090 -11.0042 -10.9987 -10.7099 -10.7023 -10.4213 -10.4210
   -10.3590 -10.3563 -10.1962 -10.1947 -10.1921 -10.1920 -10.0956 -10.0596
   -10.0593  -9.9683  -9.8868  -9.8846  -8.5366  -8.5355  -8.5236  -8.5165
    -7.5534  -7.5512  -6.8752  -6.8666  -6.8619  -6.8572  -6.1353  -6.1336
    -5.9398  -5.9389  -5.5916  -5.5810  -5.4034  -5.4016  -4.7643  -4.7537
    -4.6462  -4.6411  -4.6330  -4.5395  -4.4123  -4.4099  -4.3853  -4.3837
    -4.2261  -4.2253  -3.9290  -3.9259  -3.9232  -3.9111  -3.7999  -3.7960
    -3.7677  -3.7424  -3.6896  -3.6884  -3.5844  -3.5817  -3.5473  -3.5470
    -3.4905  -3.4886  -3.3878  -3.3871  -3.3395  -3.3291  -3.3281  -3.1815
    -3.1798  -3.0591  -3.0571  -2.9720  -2.9686  -2.9272  -2.9184  -2.9182
    -2.9041  -2.8768  -2.7271  -2.6963  -2.6947  -2.6382  -2.6290  -2.5788
    -2.4664  -2.4647  -2.4279  -2.3499  -2.3491  -2.3269  -2.3255  -2.2938
    -2.2508  -2.2500  -1.8489  -1.8472  -1.7308  -1.7297  -1.5303  -1.4808
    -1.2475  -1.2470  -1.2409  -1.2374  -1.2366  -1.1963  -1.1789  -1.1788
    -0.9484  -0.9479  -0.8358  -0.8326  -0.7803  -0.7763  -0.7024  -0.6743
    -0.6110  -0.6103  -0.4634  -0.4607  -0.4536  -0.4529  -0.3834  -0.3575
    -0.2790  -0.2776  -0.1729  -0.1725  -0.0784  -0.0784   0.1720   0.1759
     0.2927   0.2929   0.4162   0.4168   0.5397   0.5505   1.8919   1.8930
     2.0422   2.0450   2.3228   2.3542   2.4774   2.5227   2.5493   2.5507
     2.6674   2.6984   2.6997   2.7163   2.7234   2.7238   2.7505   2.7608
     2.8070   2.8078   2.9101   2.9154   2.9305   2.9395   2.9626   2.9630
     2.9932   3.0245   3.1030   3.1033   3.3512   3.3589   3.4119   3.4342
     3.5029   3.5354   3.6965   3.7209   3.8059   3.8069   3.8794   3.8800
     3.9838

          k =-0.1011 0.0000 0.0000 ( 57974 PWs)   bands (ev):

   -56.3151 -56.3116 -56.3024 -56.3014 -56.2941 -56.2755 -56.2727 -56.2727
   -56.2693 -56.2681 -32.6797 -32.6698 -32.6429 -32.6417 -32.6388 -32.6309
   -32.6265 -32.6196 -32.6163 -32.6153 -32.6121 -32.6057 -32.5993 -32.5991
   -32.5882 -32.5871 -32.5840 -32.5838 -32.5784 -32.5481 -32.4308 -32.4258
   -32.4170 -32.4152 -32.4066 -32.3855 -32.3815 -32.3815 -32.3762 -32.3748
   -16.9925 -16.9840 -16.6229 -16.6229 -16.6144 -16.6144 -15.5294 -15.5285
   -15.5203 -15.5200 -14.2133 -14.1199 -14.0586 -14.0567 -13.9652 -13.9648
   -13.8418 -13.8411 -13.7567 -13.7566 -13.7168 -13.7164 -13.7084 -13.7073
   -11.8037 -11.8007 -11.7913 -11.7399 -11.5743 -11.5742 -11.5279 -11.5273
   -11.0914 -11.0900 -11.0674 -11.0655 -11.0192 -11.0170 -10.6096 -10.4981
   -10.4939 -10.4897 -10.3800 -10.3797 -10.3554 -10.3544 -10.2323 -10.2314
    -9.1414  -9.1413  -9.1402  -9.1401  -8.4016  -8.4007  -7.6860  -7.6851
    -7.6845  -7.6832  -7.5240  -7.5238  -7.5227  -7.5226  -6.0899  -6.0898
    -6.0878  -6.0877  -5.1637  -5.1605  -5.1596  -5.1593  -5.0706  -4.9009
    -4.8907  -4.8879  -4.6634  -4.6625  -4.4852  -4.4832  -4.4784  -4.4781
    -4.4151  -4.4141  -3.9319  -3.8264  -3.6982  -3.6973  -3.6958  -3.6893
    -3.6595  -3.6594  -3.5911  -3.5883  -3.5858  -3.5855  -3.5846  -3.5842
    -3.5227  -3.5159  -3.3108  -3.3075  -3.1762  -3.1734  -3.1106  -3.1105
    -3.1045  -3.1045  -2.9699  -2.9687  -2.9099  -2.8403  -2.8164  -2.8162
    -2.7342  -2.7328  -2.7130  -2.7123  -2.4866  -2.4862  -2.4305  -2.4076
    -2.2925  -2.2891  -2.2278  -2.1939  -2.1938  -2.1479  -2.1107  -2.1054
    -2.0391  -2.0385  -1.6866  -1.6707  -1.6647  -1.6490  -1.6463  -1.6357
    -1.3827  -1.3347  -1.3184  -1.3152  -1.2198  -1.2197  -1.0396  -1.0343
    -0.9605  -0.9576  -0.8953  -0.8952  -0.8403  -0.8398  -0.7716  -0.7715
    -0.7513  -0.7113  -0.7111  -0.6874  -0.4427  -0.4410  -0.3971  -0.3916
    -0.3221  -0.3113  -0.2780  -0.2672  -0.1674  -0.1414  -0.1387  -0.0879
    -0.0808  -0.0722   0.5571   0.5731   0.5871   0.6306   1.5802   1.6461
     1.8167   1.8232   1.9345   1.9419   1.9473   1.9514   1.9578   2.0106
     2.0761   2.0776   2.4237   2.4512   2.4549   2.4967   2.4994   2.5175
     2.8642   2.8693   2.9056   2.9060   2.9375   2.9440   2.9561   2.9717
     2.9729   2.9970   3.0073   3.0098   3.0336   3.0351   3.3399   3.3418
     3.3671   3.3869   3.3871   3.4397   3.9407   3.9413   3.9797   3.9808
     4.0924

          k =-0.1011-0.0296 0.0000 ( 57984 PWs)   bands (ev):

   -56.3151 -56.3116 -56.3023 -56.3015 -56.2941 -56.2753 -56.2740 -56.2708
   -56.2704 -56.2678 -32.6855 -32.6521 -32.6491 -32.6476 -32.6386 -32.6316
   -32.6234 -32.6210 -32.6167 -32.6165 -32.6120 -32.6045 -32.6032 -32.5942
   -32.5927 -32.5923 -32.5857 -32.5843 -32.5586 -32.5574 -32.4308 -32.4258
   -32.4167 -32.4154 -32.4066 -32.3851 -32.3835 -32.3785 -32.3781 -32.3743
   -16.9049 -16.8965 -16.8948 -16.8862 -16.1658 -16.1629 -16.1568 -16.1548
   -14.7314 -14.7200 -14.7168 -14.7144 -14.1707 -14.1704 -14.0780 -14.0768
   -13.9171 -13.9156 -13.8240 -13.8236 -13.7448 -13.6632 -12.6815 -12.6794
   -12.6790 -12.6761 -11.7362 -11.7342 -11.6863 -11.6834 -11.3372 -11.3370
   -11.2984 -11.2979 -10.9683 -10.9630 -10.5794 -10.5775 -10.4658 -10.4641
   -10.4026 -10.3989 -10.3545 -10.2852 -10.2851 -10.2245 -10.1364 -10.1309
   -10.1307 -10.1275  -8.3941  -8.3928  -8.3920  -8.3907  -8.2087  -8.2083
    -8.2004  -8.2001  -6.9150  -6.9140  -6.9133  -6.9119  -6.3921  -6.3908
    -6.3898  -6.3885  -5.3082  -5.3060  -5.3039  -5.3014  -4.9720  -4.9618
    -4.8000  -4.7885  -4.6900  -4.6188  -4.2019  -4.1874  -4.1479  -4.1473
    -4.1463  -4.1447  -4.0033  -3.9976  -3.9451  -3.9442  -3.8515  -3.8512
    -3.8491  -3.8474  -3.7452  -3.7452  -3.5934  -3.5491  -3.5478  -3.5404
    -3.5395  -3.5378  -3.3219  -3.3216  -3.2247  -3.2198  -3.1574  -3.0806
    -2.9843  -2.9833  -2.9229  -2.9207  -2.9183  -2.9158  -2.8641  -2.8584
    -2.8571  -2.5341  -2.4471  -2.4448  -2.3833  -2.3830  -2.3620  -2.3123
    -2.2970  -2.2444  -2.2214  -2.2057  -2.2055  -2.1097  -2.1083  -2.0542
    -2.0523  -2.0464  -1.9453  -1.8155  -1.7616  -1.7615  -1.7117  -1.7108
    -1.5637  -1.5626  -1.5569  -1.5557  -1.0383  -1.0378  -1.0006  -0.9979
    -0.9963  -0.9650  -0.9292  -0.9125  -0.7367  -0.7366  -0.7199  -0.7195
    -0.5851  -0.5835  -0.4784  -0.4726  -0.4715  -0.4610  -0.4166  -0.4164
    -0.3543  -0.3542  -0.1589  -0.1498  -0.1446  -0.1428  -0.0577  -0.0572
    -0.0039   0.0032   0.2617   0.2650   0.3265   0.3269   1.7078   1.7220
     1.8093   1.8112   1.8948   1.8994   1.9704   2.0236   2.0239   2.0902
     2.1076   2.1115   2.1522   2.1565   2.7543   2.7545   2.7929   2.7929
     2.8697   2.9017   2.9047   2.9129   2.9402   2.9407   2.9612   2.9894
     3.0029   3.0249   3.0562   3.0707   3.1284   3.1493   3.1565   3.1930
     3.3069   3.3082   3.3292   3.3303   3.6835   3.6841   3.7290   3.7293
     3.9532

     the Fermi energy is     1.3251 ev

!    total energy              =   -2323.05749771 Ry
     Harris-Foulkes estimate   =   -2323.05749789 Ry
     estimated scf accuracy    <       0.00000049 Ry

     The total energy is the sum of the following terms:

     one-electron contribution =  -19189.77113453 Ry
     hartree contribution      =    9676.64345904 Ry
     xc contribution           =    -590.98143170 Ry
     ewald contribution        =    7781.05937182 Ry
     smearing contrib. (-TS)   =      -0.00776234 Ry

     convergence has been achieved in  11 iterations

     Forces acting on atoms (Ry/au):


     negative rho (up, down):  0.330E-01 0.000E+00
     atom    1 type  1   force =    -0.00620959    0.00004638    0.00697680
     atom    2 type  1   force =    -0.00643014    0.00000000    0.00681472
     atom    3 type  1   force =    -0.00620959   -0.00004638    0.00697680
     atom    4 type  1   force =    -0.00582357   -0.00020419    0.00741962
     atom    5 type  1   force =    -0.00582357    0.00020419    0.00741962
     atom    6 type  1   force =     0.00581884    0.00004060   -0.01087020
     atom    7 type  1   force =     0.00581884   -0.00004060   -0.01087020
     atom    8 type  1   force =     0.00584503   -0.00007821   -0.01090079
     atom    9 type  1   force =     0.00586182    0.00000000   -0.01083302
     atom   10 type  1   force =     0.00584503    0.00007821   -0.01090079
     atom   11 type  2   force =     0.01259334    0.00002435   -0.01705225
     atom   12 type  2   force =     0.01259045    0.00000000   -0.01702670
     atom   13 type  2   force =     0.01259334   -0.00002435   -0.01705225
     atom   14 type  2   force =     0.01261497   -0.00000963   -0.01707367
     atom   15 type  2   force =     0.01261497    0.00000963   -0.01707367
     atom   16 type  2   force =    -0.01238278    0.00007198    0.00722351
     atom   17 type  2   force =    -0.01238278   -0.00007198    0.00722351
     atom   18 type  2   force =    -0.01175002   -0.00043425    0.00775396
     atom   19 type  2   force =    -0.01171493    0.00000000    0.00843978
     atom   20 type  2   force =    -0.01175002    0.00043425    0.00775396
     atom   21 type  2   force =     0.00374165    0.00001070    0.00244907
     atom   22 type  2   force =     0.00373630    0.00000000    0.00246573
     atom   23 type  2   force =     0.00374165   -0.00001070    0.00244907
     atom   24 type  2   force =     0.00375545   -0.00005688    0.00246027
     atom   25 type  2   force =     0.00375545    0.00005688    0.00246027
     atom   26 type  2   force =    -0.00368723   -0.00005245   -0.00295200
     atom   27 type  2   force =    -0.00368723    0.00005245   -0.00295200
     atom   28 type  2   force =    -0.00367996    0.00010470   -0.00285196
     atom   29 type  2   force =    -0.00367270    0.00000000   -0.00243622
     atom   30 type  2   force =    -0.00367996   -0.00010470   -0.00285196
     atom   31 type  2   force =    -0.01680662    0.00002886   -0.01197798
     atom   32 type  2   force =    -0.01681046    0.00000000   -0.01195082
     atom   33 type  2   force =    -0.01680662   -0.00002886   -0.01197798
     atom   34 type  2   force =    -0.01682385   -0.00000902   -0.01199478
     atom   35 type  2   force =    -0.01682385    0.00000902   -0.01199478
     atom   36 type  2   force =     0.01583622    0.00015038    0.00049927
     atom   37 type  2   force =     0.01583622   -0.00015038    0.00049927
     atom   38 type  2   force =     0.01627490   -0.00066012    0.00158556
     atom   39 type  2   force =     0.01689733    0.00000000    0.00270453
[...]
     3.4465   3.4859   3.4867   3.5707   3.5718   3.6655   3.9235   3.9276
     3.9580

          k = 0.0674-0.0296 0.0000 ( 57938 PWs)   bands (ev):

   -56.3386 -56.3355 -56.3303 -56.3292 -56.3244 -56.3019 -56.3000 -56.2973
   -56.2966 -56.2937 -32.7024 -32.6689 -32.6685 -32.6680 -32.6518 -32.6472
   -32.6397 -32.6384 -32.6347 -32.6345 -32.6301 -32.6212 -32.6199 -32.6159
   -32.6102 -32.6099 -32.6090 -32.6038 -32.5809 -32.5779 -32.4309 -32.4269
   -32.4224 -32.4208 -32.4157 -32.3903 -32.3888 -32.3842 -32.3838 -32.3801
   -17.4902 -17.4876 -16.7482 -16.7482 -16.0617 -16.0591 -15.3359 -15.3359
   -15.2921 -15.2914 -14.3112 -14.3053 -14.2494 -14.2417 -14.0518 -14.0508
   -14.0018 -14.0015 -13.9363 -13.9317 -13.8823 -13.8415 -13.2047 -13.2041
   -12.0350 -12.0348 -11.8142 -11.8137 -11.3972 -11.3970 -11.0909 -11.0908
   -10.8464 -10.8413 -10.8128 -10.8127 -10.6964 -10.6951 -10.3867 -10.3853
   -10.2770 -10.2739 -10.1169 -10.1110 -10.0245 -10.0228  -9.9391  -9.9388
    -9.8891  -9.8782  -9.8775  -9.8121  -8.5261  -8.5247  -8.5238  -8.5237
    -7.5810  -7.5802  -6.8444  -6.8423  -6.8346  -6.8336  -6.1480  -6.1477
    -5.9110  -5.9103  -5.4862  -5.4851  -5.4053  -5.4042  -4.6739  -4.6714
    -4.6228  -4.6210  -4.5242  -4.4649  -4.4334  -4.4329  -4.2495  -4.2489
    -4.0661  -4.0660  -3.9320  -3.9311  -3.8133  -3.8118  -3.7651  -3.7645
    -3.6675  -3.6667  -3.5870  -3.5825  -3.5415  -3.5397  -3.4184  -3.4181
    -3.3954  -3.3944  -3.3442  -3.3439  -3.2292  -3.2288  -3.2019  -3.2006
    -3.1233  -2.9835  -2.9829  -2.9293  -2.9288  -2.8878  -2.8836  -2.8824
    -2.8810  -2.8305  -2.6793  -2.6766  -2.6450  -2.5912  -2.5598  -2.5596
    -2.3797  -2.3676  -2.3412  -2.3228  -2.3177  -2.3149  -2.3116  -2.3019
    -2.0727  -2.0721  -1.8132  -1.8132  -1.6771  -1.6769  -1.4762  -1.4654
    -1.2136  -1.2129  -1.2086  -1.1908  -1.0957  -1.0955  -0.9835  -0.9830
    -0.8123  -0.8119  -0.8019  -0.8018  -0.7453  -0.7437  -0.5894  -0.5858
    -0.4729  -0.4722  -0.4489  -0.4478  -0.3463  -0.3287  -0.3112  -0.3111
    -0.2918  -0.2906  -0.1214  -0.1203  -0.0653  -0.0649   0.1869   0.1870
     0.3825   0.3858   0.5072   0.5091   0.5257   0.5267   1.8521   1.8530
     1.9751   1.9773   2.4577   2.4731   2.5139   2.5328   2.6376   2.6388
     2.6951   2.6952   2.7022   2.7022   2.7725   2.7757   2.7908   2.7928
     2.8784   2.8788   2.9729   2.9737   2.9871   2.9950   3.0124   3.0133
     3.0260   3.0516   3.0780   3.0781   3.3091   3.3118   3.4244   3.4291
     3.5958   3.6156   3.6603   3.6786   3.7654   3.7655   3.8265   3.8267
     3.9592

          k =-0.1011 0.0000 0.0000 ( 57974 PWs)   bands (ev):

   -56.3386 -56.3355 -56.3304 -56.3291 -56.3244 -56.3021 -56.2993 -56.2985
   -56.2958 -56.2938 -32.6955 -32.6900 -32.6602 -32.6586 -32.6520 -32.6454
   -32.6433 -32.6380 -32.6370 -32.6350 -32.6304 -32.6226 -32.6166 -32.6165
   -32.6067 -32.6052 -32.6038 -32.6034 -32.6027 -32.5699 -32.4313 -32.4269
   -32.4236 -32.4206 -32.4162 -32.3913 -32.3876 -32.3873 -32.3825 -32.3809
   -16.9839 -16.9807 -16.6150 -16.6149 -16.6118 -16.6118 -15.5223 -15.5215
   -15.5198 -15.5179 -14.2622 -14.2136 -14.1149 -14.1139 -14.0665 -14.0665
   -13.8705 -13.8681 -13.8204 -13.8195 -13.7573 -13.7562 -13.7561 -13.7553
   -11.7801 -11.7781 -11.5669 -11.5587 -11.3558 -11.3555 -11.3496 -11.3493
   -11.0625 -11.0607 -10.9157 -10.9108 -10.9076 -10.9044 -10.4907 -10.4203
   -10.3552 -10.3532 -10.2832 -10.2830 -10.1586 -10.1546 -10.0811 -10.0804
    -9.1554  -9.1549  -9.1548  -9.1544  -8.3772  -8.3765  -7.6811  -7.6801
    -7.6796  -7.6791  -7.5095  -7.5092  -7.5092  -7.5089  -6.0734  -6.0726
    -6.0719  -6.0711  -5.1719  -5.1719  -5.1715  -5.1700  -4.9120  -4.8582
    -4.8406  -4.8394  -4.4890  -4.4887  -4.4286  -4.4285  -4.3453  -4.3349
    -4.3008  -4.2912  -3.8413  -3.8374  -3.7568  -3.7559  -3.6140  -3.6132
    -3.6126  -3.6119  -3.5458  -3.5451  -3.5422  -3.5413  -3.4993  -3.4980
    -3.4353  -3.4328  -3.2124  -3.2044  -3.1613  -3.1575  -3.1100  -3.1095
    -3.0715  -3.0709  -2.7939  -2.7918  -2.7756  -2.7578  -2.7571  -2.7287
    -2.5506  -2.5502  -2.5316  -2.5304  -2.4455  -2.4419  -2.4359  -2.4296
    -2.2142  -2.2134  -2.1644  -2.1637  -2.1105  -2.0701  -2.0593  -2.0575
    -2.0235  -2.0226  -1.7180  -1.7084  -1.6496  -1.6468  -1.6466  -1.6447
    -1.2814  -1.2577  -1.2267  -1.2249  -1.2009  -1.2002  -1.0599  -1.0597
    -1.0282  -1.0271  -0.7274  -0.7269  -0.6966  -0.6962  -0.6717  -0.6624
    -0.6606  -0.6590  -0.4867  -0.4712  -0.3368  -0.3313  -0.3273  -0.3226
    -0.2545  -0.2472  -0.2178  -0.2165  -0.1666  -0.1300  -0.1008  -0.0975
    -0.0739  -0.0727   0.5761   0.5879   0.7155   0.7447   1.6164   1.6339
     2.0358   2.0379   2.0530   2.0925   2.0952   2.1083   2.2204   2.2255
     2.3016   2.3023   2.4180   2.4293   2.4367   2.4457   2.4552   2.4622
     2.8473   2.8513   2.8892   2.8934   2.9561   2.9664   2.9722   2.9744
     2.9802   2.9892   3.0020   3.0089   3.0116   3.0533   3.3298   3.3328
     3.3335   3.3570   3.3572   3.3798   3.9106   3.9136   3.9653   3.9680
     3.9956

          k =-0.1011-0.0296 0.0000 ( 57984 PWs)   bands (ev):

   -56.3386 -56.3355 -56.3302 -56.3292 -56.3244 -56.3019 -56.3000 -56.2973
   -56.2966 -56.2937 -32.7024 -32.6688 -32.6685 -32.6679 -32.6515 -32.6468
   -32.6392 -32.6376 -32.6351 -32.6350 -32.6302 -32.6214 -32.6201 -32.6160
   -32.6104 -32.6101 -32.6091 -32.6038 -32.5809 -32.5779 -32.4312 -32.4273
   -32.4228 -32.4212 -32.4161 -32.3909 -32.3893 -32.3847 -32.3842 -32.3805
   -16.8928 -16.8902 -16.8897 -16.8870 -16.1571 -16.1566 -16.1540 -16.1535
   -14.7183 -14.7183 -14.7157 -14.7146 -14.2255 -14.2179 -14.1779 -14.1686
   -13.9792 -13.9782 -13.9318 -13.9315 -13.8213 -13.7766 -12.6783 -12.6780
   -12.6764 -12.6757 -11.5135 -11.5108 -11.5052 -11.5021 -11.1313 -11.1306
   -11.1281 -11.1276 -10.8136 -10.8080 -10.4578 -10.4483 -10.3881 -10.3763
   -10.2382 -10.2363 -10.1649 -10.1645 -10.1572 -10.1556 -10.1551 -10.1542
   -10.1341 -10.0557  -8.3951  -8.3951  -8.3948  -8.3944  -8.1826  -8.1821
    -8.1805  -8.1800  -6.9045  -6.9039  -6.9033  -6.9024  -6.3909  -6.3907
    -6.3900  -6.3898  -5.2761  -5.2752  -5.2749  -5.2740  -4.8053  -4.8051
    -4.7515  -4.7490  -4.5513  -4.5073  -4.1668  -4.1660  -4.1657  -4.1654
    -3.9870  -3.9836  -3.9039  -3.9035  -3.7902  -3.7898  -3.7589  -3.7574
    -3.7525  -3.7520  -3.7500  -3.7467  -3.5871  -3.5857  -3.5839  -3.5835
    -3.5173  -3.4936  -3.2972  -3.2967  -3.2754  -3.2734  -2.8960  -2.8677
    -2.8671  -2.8570  -2.8555  -2.8071  -2.7985  -2.7981  -2.7653  -2.7568
    -2.6357  -2.5668  -2.3338  -2.3195  -2.2970  -2.2872  -2.2779  -2.2549
    -2.2441  -2.2425  -2.2353  -2.1936  -2.1931  -2.1073  -2.0141  -1.9709
    -1.9675  -1.9665  -1.9506  -1.9506  -1.6778  -1.6727  -1.6663  -1.6606
    -1.5768  -1.5681  -1.5497  -1.5415  -0.9978  -0.9973  -0.9938  -0.9864
    -0.9638  -0.9636  -0.8052  -0.7988  -0.5309  -0.5288  -0.5225  -0.5218
    -0.4939  -0.4936  -0.4430  -0.4425  -0.3726  -0.3634  -0.2686  -0.2686
    -0.2560  -0.2556  -0.1707  -0.1653  -0.1399  -0.1332  -0.0938  -0.0917
    -0.0649  -0.0641   0.3696   0.3810   0.4029   0.4122   1.8320   1.8360
     1.8440   1.8460   2.1529   2.1555   2.1621   2.1635   2.2007   2.2054
     2.2309   2.2310   2.2421   2.3204   2.7211   2.7226   2.7414   2.7419
     2.8617   2.8952   2.8956   2.9113   2.9332   2.9333   3.0253   3.0323
     3.0535   3.0551   3.0974   3.1016   3.1305   3.1357   3.1392   3.1661
     3.2295   3.2373   3.2619   3.2649   3.6443   3.6446   3.6723   3.6726
     3.9326

     the Fermi energy is     1.3139 ev

!    total energy              =   -2323.14448671 Ry
     Harris-Foulkes estimate   =   -2323.14448671 Ry
     estimated scf accuracy    <          4.2E-09 Ry

     The total energy is the sum of the following terms:

     one-electron contribution =  -17071.90067819 Ry
     hartree contribution      =    8617.87905757 Ry
     xc contribution           =    -590.29977443 Ry
     ewald contribution        =    6721.18569229 Ry
     smearing contrib. (-TS)   =      -0.00878396 Ry

     convergence has been achieved in  12 iterations

     Forces acting on atoms (Ry/au):


     negative rho (up, down):  0.303E-01 0.000E+00
     atom    1 type  1   force =    -0.00054244   -0.00012946   -0.00010475
     atom    2 type  1   force =    -0.00041501    0.00000000    0.00006527
     atom    3 type  1   force =    -0.00054244    0.00012946   -0.00010475
     atom    4 type  1   force =    -0.00084010    0.00014916   -0.00011756
     atom    5 type  1   force =    -0.00084010   -0.00014916   -0.00011756
     atom    6 type  1   force =     0.00064034    0.00007655    0.00008455
     atom    7 type  1   force =     0.00064034   -0.00007655    0.00008455
     atom    8 type  1   force =     0.00065339   -0.00009151   -0.00010864
     atom    9 type  1   force =     0.00060190    0.00000000   -0.00037994
     atom   10 type  1   force =     0.00065339    0.00009151   -0.00010864
     atom   11 type  2   force =     0.00034163    0.00011661    0.00036858
     atom   12 type  2   force =     0.00029888    0.00000000    0.00050562
     atom   13 type  2   force =     0.00034163   -0.00011661    0.00036858
     atom   14 type  2   force =     0.00041122   -0.00012467    0.00010592
     atom   15 type  2   force =     0.00041122    0.00012467    0.00010592
     atom   16 type  2   force =     0.00009642   -0.00018096   -0.00014279
     atom   17 type  2   force =     0.00009642    0.00018096   -0.00014279
     atom   18 type  2   force =    -0.00039998    0.00031893   -0.00034508
     atom   19 type  2   force =    -0.00075799    0.00000000   -0.00018842
     atom   20 type  2   force =    -0.00039998   -0.00031893   -0.00034508
     atom   21 type  2   force =     0.00001913   -0.00005661   -0.00037846
     atom   22 type  2   force =     0.00016569    0.00000000   -0.00015914
     atom   23 type  2   force =     0.00001913    0.00005661   -0.00037846
     atom   24 type  2   force =    -0.00020136    0.00010630   -0.00071842
     atom   25 type  2   force =    -0.00020136   -0.00010630   -0.00071842
     atom   26 type  2   force =    -0.00009778    0.00011986    0.00071372
     atom   27 type  2   force =    -0.00009778   -0.00011986    0.00071372
     atom   28 type  2   force =    -0.00023217   -0.00011891    0.00041491
     atom   29 type  2   force =    -0.00032176    0.00000000    0.00016394
     atom   30 type  2   force =    -0.00023217    0.00011891    0.00041491
     atom   31 type  2   force =    -0.00008450    0.00018182   -0.00034810
     atom   32 type  2   force =    -0.00009747    0.00000000   -0.00021089
     atom   33 type  2   force =    -0.00008450   -0.00018182   -0.00034810
     atom   34 type  2   force =    -0.00005714   -0.00016356   -0.00061104
     atom   35 type  2   force =    -0.00005714    0.00016356   -0.00061104
     atom   36 type  2   force =     0.00044038   -0.00008803    0.00062540
     atom   37 type  2   force =     0.00044038    0.00008803    0.00062540
     atom   38 type  2   force =    -0.00012341    0.00012562    0.00018349
     atom   39 type  2   force =    -0.00046118    0.00000000    0.00021842
     atom   40 type  2   force =    -0.00012341   -0.00012562    0.00018349
     atom   41 type  3   force =    -0.00008906   -0.00030049    0.00048913
     atom   42 type  3   force =     0.00064674    0.00082844   -0.00006074
     atom   43 type  3   force =     0.00027704    0.00062617    0.00004044
     atom   44 type  3   force =    -0.00042309    0.00064706    0.00066070
     atom   45 type  3   force =    -0.00027340    0.00004675    0.00001452
     atom   46 type  3   force =     0.00080528    0.00097528   -0.00055156
     atom   47 type  3   force =     0.00040936    0.00054313   -0.00058710
     atom   48 type  3   force =    -0.00069377    0.00066411    0.00005574
     atom   49 type  3   force =     0.00064674   -0.00082844   -0.00006074
     atom   50 type  3   force =    -0.00008906    0.00030049    0.00048913
     atom   51 type  3   force =    -0.00042309   -0.00064706    0.00066070
     atom   52 type  3   force =     0.00027704   -0.00062617    0.00004044
     atom   53 type  3   force =     0.00080528   -0.00097528   -0.00055156
     atom   54 type  3   force =    -0.00027340   -0.00004675    0.00001452
     atom   55 type  3   force =    -0.00069377   -0.00066411    0.00005574
     atom   56 type  3   force =     0.00040936   -0.00054313   -0.00058710
     atom   57 type  3   force =    -0.00052540    0.00056220   -0.00022690
     atom   58 type  3   force =     0.00030150    0.00019380    0.00018607
     atom   59 type  3   force =     0.00052559    0.00019034    0.00060577
     atom   60 type  3   force =    -0.00032278    0.00009267    0.00015611
     atom   61 type  3   force =    -0.00077184    0.00033843   -0.00053490
     atom   62 type  3   force =     0.00028882   -0.00013215   -0.00013076
     atom   63 type  3   force =     0.00067779    0.00016566    0.00036095
     atom   64 type  3   force =    -0.00036294    0.00021245   -0.00010662
     atom   65 type  3   force =     0.00030150   -0.00019380    0.00018607
     atom   66 type  3   force =    -0.00052540   -0.00056220   -0.00022690
     atom   67 type  3   force =    -0.00032278   -0.00009267    0.00015611
     atom   68 type  3   force =     0.00052559   -0.00019034    0.00060577
     atom   69 type  3   force =     0.00028882    0.00013215   -0.00013076
     atom   70 type  3   force =    -0.00077184   -0.00033843   -0.00053490
     atom   71 type  3   force =    -0.00036294   -0.00021245   -0.00010662
     atom   72 type  3   force =     0.00067779   -0.00016566    0.00036095

     Total force =     0.005801     Total SCF correction =     0.000127

     bfgs converged in  22 scf cycles and  21 bfgs steps
     (criteria: energy < 0.10E-03, force < 0.10E-02)

     End of BFGS Geometry Optimization

     Final energy   =   -2323.1444867149 Ry
Begin final coordinates

ATOMIC_POSITIONS (crystal)
Ti       0.326402715   0.050229693   0.097062356
Ti       0.325172808   0.250000000   0.096589799
Ti       0.326402715   0.449770307   0.097062356
Ti       0.328542199   0.649817364   0.097695781
Ti       0.328542199   0.850182636   0.097695781
Ti       0.824328236   0.149849869  -0.013789367
Ti       0.824328236   0.350150131  -0.013789367
Ti       0.825074112   0.550219797  -0.013177900
Ti       0.825607704   0.750000000  -0.012759159
Ti       0.825074112   0.949780203  -0.013177900
S        0.618312673   0.049515117   0.923899892
S        0.618022276   0.250000000   0.923560089
S        0.618312673   0.450484883   0.923899892
S        0.618810435   0.650325799   0.924500661
S        0.618810435   0.849674201   0.924500661
S        0.530290574   0.150372769   0.159836142
S        0.530290574   0.349627231   0.159836142
S        0.536003303   0.549369944   0.159678100
S        0.539477242   0.750000000   0.159534174
S        0.536003303   0.950630056   0.159678100
S        0.825602757   0.050182822   0.059247695
S        0.824521299   0.250000000   0.058839924
S        0.825602757   0.449817178   0.059247695
S        0.827408211   0.649844298   0.059880535
S        0.827408211   0.850155702   0.059880535
S        0.325311766   0.149838140   0.024134862
S        0.325311766   0.350161860   0.024134862
S        0.326413976   0.550202726   0.024778894
S        0.327141989   0.750000000   0.025203691
S        0.326413976   0.949797274   0.024778894
S        0.033521784   0.049497445   0.924681280
S        0.033203237   0.250000000   0.924388064
S        0.033521784   0.450502555   0.924681280
S        0.034057127   0.650327324   0.925200585
S        0.034057127   0.849672676   0.925200585
S        0.114476441   0.150328734   0.158371526
S        0.114476441   0.349671266   0.158371526
S        0.120150316   0.549477310   0.159714164
S        0.123701223   0.750000000   0.160463490
S        0.120150316   0.950522690   0.159714164
C        0.375665079   0.208245320   0.306097290
C        0.375593805   0.458234946   0.305880946
C        0.375520871   0.708231011   0.305517463
C        0.375600332   0.958226003   0.305740196
C        0.875662643   0.208242091   0.306150022
C        0.875568799   0.458236748   0.305927350
C        0.875503909   0.708237329   0.305557789
C        0.875602889   0.958229181   0.305776934
C        0.375593805   0.041765054   0.305880946
C        0.375665079   0.291754680   0.306097290
C        0.375600332   0.541773997   0.305740196
C        0.375520871   0.791768989   0.305517463
C        0.875568799   0.041763252   0.305927350
C        0.875662643   0.291757909   0.306150022
C        0.875602889   0.541770819   0.305776934
C        0.875503909   0.791762671   0.305557789
C        0.125654249   0.083233655   0.305972638
C        0.125638122   0.333239050   0.306095410
C        0.125542980   0.583240580   0.305647441
C        0.125555306   0.833240709   0.305522676
C        0.625695853   0.083239790   0.306036002
C        0.625667141   0.333246423   0.306164204
C        0.625556344   0.583241819   0.305682572
C        0.625578664   0.833239529   0.305555424
C        0.125638122   0.166760950   0.306095410
C        0.125654249   0.416766345   0.305972638
C        0.125555306   0.666759291   0.305522676
C        0.125542980   0.916759420   0.305647441
C        0.625667141   0.166753577   0.306164204
C        0.625695853   0.416760210   0.306036002
C        0.625578664   0.666760471   0.305555424
C        0.625556344   0.916758181   0.305682572
End final coordinates



     Writing output data file TiS3.save

     init_run     :    537.49s CPU    550.68s WALL (       1 calls)
     electrons    : 314987.93s CPU 716174.15s WALL (      22 calls)
     update_pot   :    924.59s CPU    997.10s WALL (      21 calls)
     forces       :   8586.41s CPU   9269.53s WALL (      22 calls)

     Called by init_run:
     wfcinit      :    445.11s CPU    456.53s WALL (       1 calls)
     potinit      :     19.95s CPU     21.34s WALL (       1 calls)

     Called by electrons:
     c_bands      : 259629.50s CPU 651158.04s WALL (     283 calls)
     sum_band     :  38971.54s CPU  45481.67s WALL (     283 calls)
     v_of_rho     :   3447.50s CPU   4869.67s WALL (     302 calls)
     newd         :  14059.95s CPU  14164.71s WALL (     302 calls)
     mix_rho      :     86.94s CPU    980.50s WALL (     283 calls)
     vdW_energy   :   1125.22s CPU   2042.41s WALL (     324 calls)
     vdW_ffts     :    967.81s CPU   1061.55s WALL (     648 calls)
     vdW_v        :    555.56s CPU    674.24s WALL (     324 calls)

     Called by c_bands:
     init_us_2    :    968.87s CPU   3022.18s WALL (    4712 calls)
     cegterg      : 257283.29s CPU 637864.82s WALL (    2264 calls)

     Called by *egterg:
     h_psi        : 126253.57s CPU 235490.00s WALL (   13008 calls)
     s_psi        :  32956.49s CPU  33376.74s WALL (   13008 calls)
     g_psi        :    348.16s CPU    500.94s WALL (   10736 calls)
     cdiaghg      :   5226.39s CPU   7592.88s WALL (   12808 calls)

     Called by h_psi:
     add_vuspsi   :  33038.43s CPU  34271.68s WALL (   13008 calls)

     General routines
     calbec       :  54550.81s CPU 144866.56s WALL (   15448 calls)
     fft          :   1573.67s CPU   1740.38s WALL (   21219 calls)
     ffts         :     12.33s CPU     15.59s WALL (     585 calls)
     fftw         :  40900.46s CPU  41944.50s WALL ( 3522470 calls)
     interpolate  :     67.13s CPU    152.60s WALL (     585 calls)
     davcio       :     14.81s CPU  13333.29s WALL (    6976 calls)

     Parallel routines
     fft_scatter  :  12003.48s CPU  12024.64s WALL ( 3544274 calls)

     PWSCF        :     3d   18h33m CPU        8d   10h13m WALL


   This run was terminated on:   2:23:32  19Nov2019            

=------------------------------------------------------------------------------=
   JOB DONE.
=------------------------------------------------------------------------------=
